 Entering Gaussian System, Link 0=g16
 Initial command:
 /opt/software/gaussian/g16.a03/l1.exe "/localscratch/alrebei.28376405.0/Gau-32757.inp" -scrdir="/localscratch/alrebei.28376405.0/"
 Entering Link 1 = /opt/software/gaussian/g16.a03/l1.exe PID=     32758.
  
 Copyright (c) 1988,1990,1992,1993,1995,1998,2003,2009,2016,
            Gaussian, Inc.  All Rights Reserved.
  
 This is part of the Gaussian(R) 16 program.  It is based on
 the Gaussian(R) 09 system (copyright 2009, Gaussian, Inc.),
 the Gaussian(R) 03 system (copyright 2003, Gaussian, Inc.),
 the Gaussian(R) 98 system (copyright 1998, Gaussian, Inc.),
 the Gaussian(R) 94 system (copyright 1995, Gaussian, Inc.),
 the Gaussian 92(TM) system (copyright 1992, Gaussian, Inc.),
 the Gaussian 90(TM) system (copyright 1990, Gaussian, Inc.),
 the Gaussian 88(TM) system (copyright 1988, Gaussian, Inc.),
 the Gaussian 86(TM) system (copyright 1986, Carnegie Mellon
 University), and the Gaussian 82(TM) system (copyright 1983,
 Carnegie Mellon University). Gaussian is a federally registered
 trademark of Gaussian, Inc.
  
 This software contains proprietary and confidential information,
 including trade secrets, belonging to Gaussian, Inc.
  
 This software is provided under written license and may be
 used, copied, transmitted, or stored only in accord with that
 written license.
  
 The following legend is applicable only to US Government
 contracts under FAR:
  
                    RESTRICTED RIGHTS LEGEND
  
 Use, reproduction and disclosure by the US Government is
 subject to restrictions as set forth in subparagraphs (a)
 and (c) of the Commercial Computer Software - Restricted
 Rights clause in FAR 52.227-19.
  
 Gaussian, Inc.
 340 Quinnipiac St., Bldg. 40, Wallingford CT 06492
  
  
 ---------------------------------------------------------------
 Warning -- This program may not be used in any manner that
 competes with the business of Gaussian, Inc. or will provide
 assistance to any competitor of Gaussian, Inc.  The licensee
 of this program is prohibited from giving any competitor of
 Gaussian, Inc. access to this program.  By using this program,
 the user acknowledges that Gaussian, Inc. is engaged in the
 business of creating and licensing software in the field of
 computational chemistry and represents and warrants to the
 licensee that it is not a competitor of Gaussian, Inc. and that
 it will not use this program in any manner prohibited above.
 ---------------------------------------------------------------
  

 Cite this work as:
 Gaussian 16, Revision A.03,
 M. J. Frisch, G. W. Trucks, H. B. Schlegel, G. E. Scuseria, 
 M. A. Robb, J. R. Cheeseman, G. Scalmani, V. Barone, 
 G. A. Petersson, H. Nakatsuji, X. Li, M. Caricato, A. V. Marenich, 
 J. Bloino, B. G. Janesko, R. Gomperts, B. Mennucci, H. P. Hratchian, 
 J. V. Ortiz, A. F. Izmaylov, J. L. Sonnenberg, D. Williams-Young, 
 F. Ding, F. Lipparini, F. Egidi, J. Goings, B. Peng, A. Petrone, 
 T. Henderson, D. Ranasinghe, V. G. Zakrzewski, J. Gao, N. Rega, 
 G. Zheng, W. Liang, M. Hada, M. Ehara, K. Toyota, R. Fukuda, 
 J. Hasegawa, M. Ishida, T. Nakajima, Y. Honda, O. Kitao, H. Nakai, 
 T. Vreven, K. Throssell, J. A. Montgomery, Jr., J. E. Peralta, 
 F. Ogliaro, M. J. Bearpark, J. J. Heyd, E. N. Brothers, K. N. Kudin, 
 V. N. Staroverov, T. A. Keith, R. Kobayashi, J. Normand, 
 K. Raghavachari, A. P. Rendell, J. C. Burant, S. S. Iyengar, 
 J. Tomasi, M. Cossi, J. M. Millam, M. Klene, C. Adamo, R. Cammi, 
 J. W. Ochterski, R. L. Martin, K. Morokuma, O. Farkas, 
 J. B. Foresman, and D. J. Fox, Gaussian, Inc., Wallingford CT, 2016.
 
 ******************************************
 Gaussian 16:  ES64L-G16RevA.03 25-Dec-2016
                24-Feb-2020 
 ******************************************
 %nprocshared=2
 Will use up to    2 processors via shared memory.
 %mem=2GB
 ---------------------------------------
 # opt freq cis/6-311++g(3df,3pd) scf=qc
 ---------------------------------------
 1/18=20,19=15,38=1/1,3;
 2/9=110,12=2,17=6,18=5,40=1/2;
 3/5=4,6=6,7=1616,11=9,25=1,30=1,71=1/1,2,3,8;
 4//1;
 5/5=2,8=3,38=5/8;
 8/6=1,10=2/1;
 9/15=2,42=1/14;
 10/5=4/2;
 6/7=2,8=2,9=2,10=2/1;
 7/12=6,13=5/1,2,3,16;
 1/18=20,19=15/3(2);
 2/9=110/2;
 99//99;
 2/9=110/2;
 3/5=4,6=6,7=1616,11=9,25=1,30=1,71=1/1,2,3,8;
 4/5=5,16=3,69=1/1;
 5/5=2,8=3,38=5/8;
 8/6=1,10=2/1;
 9/15=2,42=1,49=4/14;
 10/5=4/2;
 7/12=6,13=5/1,2,3,16;
 1/18=20,19=15/3(-8);
 2/9=110/2;
 6/7=2,8=2,9=2,10=2/1;
 99//99;
 -------------------
 Title Card Required
 -------------------
 Symbolic Z-matrix:
 Charge =  0 Multiplicity = 1
 N                     1.06726   0.05168   0.00013 
 O                     0.83832   1.20857   0.00009 
 O                     2.11947  -0.47367  -0.00024 
 O                     0.04253  -0.79297   0.00043 
 Cl                   -1.85138   0.00605  -0.00018 
 
 Add virtual bond connecting atoms Cl5        and O4         Dist= 3.88D+00.

 GradGradGradGradGradGradGradGradGradGradGradGradGradGradGradGradGradGrad
 Berny optimization.
 Initialization pass.
                           ----------------------------
                           !    Initial Parameters    !
                           ! (Angstroms and Degrees)  !
 --------------------------                            --------------------------
 ! Name  Definition              Value          Derivative Info.                !
 --------------------------------------------------------------------------------
 ! R1    R(1,2)                  1.1793         estimate D2E/DX2                !
 ! R2    R(1,3)                  1.1761         estimate D2E/DX2                !
 ! R3    R(1,4)                  1.328          estimate D2E/DX2                !
 ! R4    R(4,5)                  2.0556         estimate D2E/DX2                !
 ! A1    A(2,1,3)              127.7255         estimate D2E/DX2                !
 ! A2    A(2,1,4)              118.3038         estimate D2E/DX2                !
 ! A3    A(3,1,4)              113.9707         estimate D2E/DX2                !
 ! A4    A(1,4,5)              117.6282         estimate D2E/DX2                !
 ! D1    D(2,1,3,4)           -179.9894         estimate D2E/DX2                !
 ! D2    D(2,1,4,5)              0.0307         estimate D2E/DX2                !
 ! D3    D(3,1,4,5)           -179.9598         estimate D2E/DX2                !
 --------------------------------------------------------------------------------
 Trust Radius=3.00D-01 FncErr=1.00D-07 GrdErr=1.00D-07 EigMax=2.50D+02 EigMin=1.00D-04
 Number of steps in this run=     21 maximum allowed number of steps=    100.
 GradGradGradGradGradGradGradGradGradGradGradGradGradGradGradGradGradGrad

                          Input orientation:                          
 ---------------------------------------------------------------------
 Center     Atomic      Atomic             Coordinates (Angstroms)
 Number     Number       Type             X           Y           Z
 ---------------------------------------------------------------------
      1          7           0        1.067259    0.051676    0.000131
      2          8           0        0.838318    1.208574    0.000090
      3          8           0        2.119470   -0.473665   -0.000242
      4          8           0        0.042534   -0.792970    0.000429
      5         17           0       -1.851376    0.006045   -0.000184
 ---------------------------------------------------------------------
                    Distance matrix (angstroms):
                    1          2          3          4          5
     1  N    0.000000
     2  O    1.179333   0.000000
     3  O    1.176066   2.114540   0.000000
     4  O    1.327964   2.153938   2.101337   0.000000
     5  Cl   2.918992   2.946274   3.999717   2.055558   0.000000
 Stoichiometry    ClNO3
 Framework group  C1[X(ClNO3)]
 Deg. of freedom     9
 Full point group                 C1      NOp   1
 Largest Abelian subgroup         C1      NOp   1
 Largest concise Abelian subgroup C1      NOp   1
                         Standard orientation:                         
 ---------------------------------------------------------------------
 Center     Atomic      Atomic             Coordinates (Angstroms)
 Number     Number       Type             X           Y           Z
 ---------------------------------------------------------------------
      1          7           0        1.067259    0.051676    0.000131
      2          8           0        0.838318    1.208574    0.000090
      3          8           0        2.119470   -0.473665   -0.000242
      4          8           0        0.042534   -0.792970    0.000429
      5         17           0       -1.851376    0.006044   -0.000184
 ---------------------------------------------------------------------
 Rotational constants (GHZ):          13.6412373           2.3087540           1.9745630
 Standard basis: 6-311++G(3df,3pd) (5D, 7F)
 There are   233 symmetry adapted cartesian basis functions of A   symmetry.
 There are   203 symmetry adapted basis functions of A   symmetry.
   203 basis functions,   307 primitive gaussians,   233 cartesian basis functions
    24 alpha electrons       24 beta electrons
       nuclear repulsion energy       219.5022103358 Hartrees.
 NAtoms=    5 NActive=    5 NUniq=    5 SFac= 1.00D+00 NAtFMM=   60 NAOKFM=F Big=F
 Integral buffers will be    131072 words long.
 Raffenetti 1 integral format.
 Two-electron integral symmetry is turned on.
 One-electron integrals computed using PRISM.
 NBasis=   203 RedAO= T EigKep=  1.40D-04  NBF=   203
 NBsUse=   203 1.00D-06 EigRej= -1.00D+00 NBFU=   203
 ExpMin= 4.83D-02 ExpMax= 1.06D+05 ExpMxC= 3.62D+03 IAcc=3 IRadAn=         5 AccDes= 0.00D+00
 Harris functional with IExCor=  205 and IRadAn=       5 diagonalized for initial guess.
 HarFok:  IExCor=  205 AccDes= 0.00D+00 IRadAn=         5 IDoV= 1 UseB2=F ITyADJ=14
 ICtDFT=  3500011 ScaDFX=  1.000000  1.000000  1.000000  1.000000
 FoFCou: FMM=F IPFlag=           0 FMFlag=      100000 FMFlg1=           0
         NFxFlg=           0 DoJE=T BraDBF=F KetDBF=T FulRan=T
         wScrn=  0.000000 ICntrl=       500 IOpCl=  0 I1Cent=   200000004 NGrid=           0
         NMat0=    1 NMatS0=      1 NMatT0=    0 NMatD0=    1 NMtDS0=    0 NMtDT0=    0
 Petite list used in FoFCou.
 Keep R1 ints in memory in canonical form, NReq=220787261.
 Gradient too large for Newton-Raphson -- use scaled steepest descent instead.
 Gradient too large for Newton-Raphson -- use scaled steepest descent instead.
     Minimum is close to point  3 DX=  7.74D-02 DF= -1.79D-04 DXR=  8.82D-02 DFR=  7.81D-03 which will be used.
 Gradient too large for Newton-Raphson -- use scaled steepest descent instead.
     Minimum is close to point  2 DX=  5.13D-02 DF= -1.74D-05 DXR=  6.83D-02 DFR=  4.69D-03 which will be used.
 Gradient too large for Newton-Raphson -- use scaled steepest descent instead.
     Minimum is close to point  2 DX=  8.19D-02 DF= -8.78D-06 DXR=  9.28D-02 DFR=  8.69D-03 which will be used.
 Gradient too large for Newton-Raphson -- use scaled steepest descent instead.
     Accept linear search using points  1 and  2.
     Minimum is close to point  2 DX= -1.86D-02 DF= -1.06D-07 DXR=  2.38D-02 DFR=  3.36D-04 which will be used.
 Gradient too large for Newton-Raphson -- use scaled steepest descent instead.
     Accept linear search using points  1 and  2.
 LinEq1:  Iter=  0 NonCon=     1 RMS=8.91D-05 Max=3.14D-03 NDo=     1
 AX will form     1 AO Fock derivatives at one time.
 LinEq1:  Iter=  1 NonCon=     1 RMS=6.17D-05 Max=2.49D-03 NDo=     1
 LinEq1:  Iter=  2 NonCon=     1 RMS=1.22D-05 Max=5.27D-04 NDo=     1
 LinEq1:  Iter=  3 NonCon=     1 RMS=5.13D-06 Max=1.32D-04 NDo=     1
 LinEq1:  Iter=  4 NonCon=     1 RMS=2.66D-06 Max=7.35D-05 NDo=     1
 LinEq1:  Iter=  5 NonCon=     1 RMS=8.16D-07 Max=1.85D-05 NDo=     1
 LinEq1:  Iter=  6 NonCon=     1 RMS=3.84D-07 Max=8.97D-06 NDo=     1
 LinEq1:  Iter=  7 NonCon=     1 RMS=1.30D-07 Max=3.50D-06 NDo=     1
 LinEq1:  Iter=  8 NonCon=     1 RMS=6.00D-08 Max=1.22D-06 NDo=     1
 LinEq1:  Iter=  9 NonCon=     1 RMS=1.55D-08 Max=2.91D-07 NDo=     1
 LinEq1:  Iter= 10 NonCon=     0 RMS=4.64D-09 Max=8.04D-08 NDo=     1
 Linear equations converged to 9.269D-09 9.269D-08 after    10 iterations.
     Accept linear search using points  1 and  2.
     Minimum is close to point  2 DX= -4.94D-03 DF= -2.09D-09 DXR=  4.97D-03 DFR=  2.48D-05 which will be used.
 LinEq1:  Iter=  0 NonCon=     1 RMS=6.57D-07 Max=2.06D-05 NDo=     1
 LinEq1:  Iter=  1 NonCon=     1 RMS=4.04D-07 Max=1.49D-05 NDo=     1
 LinEq1:  Iter=  2 NonCon=     1 RMS=1.21D-07 Max=4.99D-06 NDo=     1
 LinEq1:  Iter=  3 NonCon=     1 RMS=6.64D-08 Max=1.81D-06 NDo=     1
 LinEq1:  Iter=  4 NonCon=     1 RMS=2.81D-08 Max=8.59D-07 NDo=     1
 LinEq1:  Iter=  5 NonCon=     1 RMS=9.30D-09 Max=1.29D-07 NDo=     1
 LinEq1:  Iter=  6 NonCon=     1 RMS=5.03D-09 Max=1.55D-07 NDo=     1
 LinEq1:  Iter=  7 NonCon=     1 RMS=2.05D-09 Max=4.14D-08 NDo=     1
 LinEq1:  Iter=  8 NonCon=     1 RMS=7.30D-10 Max=1.77D-08 NDo=     1
 LinEq1:  Iter=  9 NonCon=     0 RMS=1.94D-10 Max=2.09D-09 NDo=     1
 Linear equations converged to 5.616D-10 5.616D-09 after     9 iterations.
 SCF Done:  E(RHF) =  -738.351685364     a.u. after    9 cycles
            Convg  =    0.1477D-06                    36 Fock formations.
              S**2 =  0.0000                  -V/T =  2.0007
 ExpMin= 4.83D-02 ExpMax= 1.06D+05 ExpMxC= 3.62D+03 IAcc=3 IRadAn=         5 AccDes= 0.00D+00
 HarFok:  IExCor=  205 AccDes= 0.00D+00 IRadAn=         5 IDoV=-2 UseB2=F ITyADJ=14
 ICtDFT= 12500011 ScaDFX=  1.000000  1.000000  1.000000  1.000000
 Range of M.O.s used for correlation:    10   203
 NBasis=   203 NAE=    24 NBE=    24 NFC=     9 NFV=     0
 NROrb=    194 NOA=    15 NOB=    15 NVA=   179 NVB=   179

 **** Warning!!: The largest alpha MO coefficient is  0.36971616D+02

 Orbital symmetries:
       Occupied  (A) (A) (A) (A) (A) (A) (A) (A) (A) (A) (A) (A)
                 (A) (A) (A) (A) (A) (A) (A) (A) (A) (A) (A) (A)
       Virtual   (A) (A) (A) (A) (A) (A) (A) (A) (A) (A) (A) (A)
                 (A) (A) (A) (A) (A) (A) (A) (A) (A) (A) (A) (A)
                 (A) (A) (A) (A) (A) (A) (A) (A) (A) (A) (A) (A)
                 (A) (A) (A) (A) (A) (A) (A) (A) (A) (A) (A) (A)
                 (A) (A) (A) (A) (A) (A) (A) (A) (A) (A) (A) (A)
                 (A) (A) (A) (A) (A) (A) (A) (A) (A) (A) (A) (A)
                 (A) (A) (A) (A) (A) (A) (A) (A) (A) (A) (A) (A)
                 (A) (A) (A) (A) (A) (A) (A) (A) (A) (A) (A) (A)
                 (A) (A) (A) (A) (A) (A) (A) (A) (A) (A) (A) (A)
                 (A) (A) (A) (A) (A) (A) (A) (A) (A) (A) (A) (A)
                 (A) (A) (A) (A) (A) (A) (A) (A) (A) (A) (A) (A)
                 (A) (A) (A) (A) (A) (A) (A) (A) (A) (A) (A) (A)
                 (A) (A) (A) (A) (A) (A) (A) (A) (A) (A) (A) (A)
                 (A) (A) (A) (A) (A) (A) (A) (A) (A) (A) (A) (A)
                 (A) (A) (A) (A) (A) (A) (A) (A) (A) (A) (A)
    12 initial guesses have been made.
 Convergence on wavefunction:    0.000001000000000
 Iteration     1 Dimension    12 NMult     0 NNew     12
 CISAX will form    12 AO SS matrices at one time.
 New state      1 was old state      3
 New state      2 was old state      4
 New state      3 was old state      6
 Iteration     2 Dimension    24 NMult    12 NNew     12
 Iteration     3 Dimension    27 NMult    24 NNew      3
 Iteration     4 Dimension    30 NMult    27 NNew      3
 Iteration     5 Dimension    33 NMult    30 NNew      3
 Iteration     6 Dimension    36 NMult    33 NNew      3
 Iteration     7 Dimension    39 NMult    36 NNew      3
 Iteration     8 Dimension    42 NMult    39 NNew      3
 Iteration     9 Dimension    45 NMult    42 NNew      3
 Iteration    10 Dimension    46 NMult    45 NNew      1
 ***********************************************************************
 Excited states from <AA,BB:AA,BB> singles matrix:
 ***********************************************************************
 
 Ground to excited state transition densities written to RWF  633
 Ground to excited state transition electric dipole moments (Au):
       state          X           Y           Z        Dip. S.      Osc.
         1         0.0000      0.0000     -0.0222      0.0005      0.0000
         2        -0.0412      0.0140     -0.0000      0.0019      0.0001
         3         0.0002     -0.0001     -0.0220      0.0005      0.0001
 Ground to excited state transition velocity dipole moments (Au):
       state          X           Y           Z        Dip. S.      Osc.
         1         0.0000     -0.0000     -0.0747      0.0056      0.0406
         2        -0.0128     -0.0522      0.0000      0.0029      0.0184
         3        -0.0000     -0.0000      0.0171      0.0003      0.0012
 Ground to excited state transition magnetic dipole moments (Au):
       state          X           Y           Z
         1         0.1448      0.4880     -0.0002
         2         0.0002     -0.0004     -0.8316
         3         0.3707      0.7460     -0.0005
 Ground to excited state transition velocity quadrupole moments (Au):
       state          XX          YY          ZZ          XY          XZ          YZ
         1         0.0000      0.0000     -0.0000      0.0001      0.1600      0.0262
         2         0.1516      0.0203     -0.0013      0.1632     -0.0001      0.0000
         3        -0.0001     -0.0001      0.0001     -0.0000      0.0126     -0.0437
 <0|del|b> * <b|rxdel|0> + <0|del|b> * <b|delr+rdel|0>
 Rotatory Strengths (R) in cgs (10**-40 erg-esu-cm/Gauss)
       state          XX          YY          ZZ    R(velocity)    E-M Angle
         1         0.0142      0.0988     -0.0561      0.0190       90.00
         2         0.0042     -0.0893      0.0745     -0.0035       90.00
         3        -0.0494     -0.0328     -0.0534     -0.0452       90.00
 1/2[<0|r|b>*<b|rxdel|0> + (<0|rxdel|b>*<b|r|0>)*]
 Rotatory Strengths (R) in cgs (10**-40 erg-esu-cm/Gauss)
       state          XX          YY          ZZ     R(length)
         1        -0.0003     -0.0013     -0.0037     -0.0017
         2         0.0054      0.0040     -0.0065      0.0009
         3        -0.0591      0.0386     -0.0073     -0.0093
  1/2[<0|del|b>*<b|r|0> + (<0|r|b>*<b|del|0>)*] (Au)
       state          X           Y           Z        Dip. S.   Osc.(frdel)
         1         0.0000     -0.0000      0.0017     -0.0017     -0.0011
         2         0.0005     -0.0007     -0.0000      0.0002      0.0001
         3        -0.0000      0.0000     -0.0004      0.0004      0.0003

 Excitation energies and oscillator strengths:
 
 Excited State   1:      Singlet-A      2.4914 eV  497.66 nm  f=0.0000  <S**2>=0.000
      22 -> 25         0.68411
      24 -> 25         0.11239
 This state for optimization and/or second-order correction.
 Total Energy, E(CIS/TDA) =  -738.260129594    
 Copying the excited state density for this state as the 1-particle RhoCI density.
 
 Excited State   2:      Singlet-A      2.8391 eV  436.70 nm  f=0.0001  <S**2>=0.000
      21 -> 25         0.66017
      23 -> 25         0.18744
 
 Excited State   3:      Singlet-A      4.5109 eV  274.86 nm  f=0.0001  <S**2>=0.000
      16 -> 25         0.14256
      19 -> 25         0.67366
 SavETr:  write IOETrn=   770 NScale= 10 NData=  16 NLR=1 NState=    3 LETran=      64.
          IDoAtm=11111
          Differentiating once with respect to electric field.
                with respect to dipole field.
          Differentiating once with respect to nuclear coordinates.
 Keep R1 ints in memory in canonical form, NReq=220788045.
          There are     1 degrees of freedom in the 1st order CPHF.  IDoFFX=0 NUNeed=     1.
 LinEq1:  Iter=  0 NonCon=     1 RMS=4.45D-03 Max=1.27D-01 NDo=     1
 AX will form     1 AO Fock derivatives at one time.
 LinEq1:  Iter=  1 NonCon=     1 RMS=2.54D-03 Max=6.13D-02 NDo=     1
 LinEq1:  Iter=  2 NonCon=     1 RMS=5.79D-04 Max=1.09D-02 NDo=     1
 LinEq1:  Iter=  3 NonCon=     1 RMS=2.52D-04 Max=3.85D-03 NDo=     1
 LinEq1:  Iter=  4 NonCon=     1 RMS=1.28D-04 Max=3.41D-03 NDo=     1
 LinEq1:  Iter=  5 NonCon=     1 RMS=4.66D-05 Max=1.15D-03 NDo=     1
 LinEq1:  Iter=  6 NonCon=     1 RMS=1.57D-05 Max=4.39D-04 NDo=     1
 LinEq1:  Iter=  7 NonCon=     1 RMS=7.83D-06 Max=1.73D-04 NDo=     1
 LinEq1:  Iter=  8 NonCon=     1 RMS=2.79D-06 Max=4.13D-05 NDo=     1
 LinEq1:  Iter=  9 NonCon=     1 RMS=9.25D-07 Max=2.00D-05 NDo=     1
 LinEq1:  Iter= 10 NonCon=     1 RMS=2.81D-07 Max=8.31D-06 NDo=     1
 LinEq1:  Iter= 11 NonCon=     1 RMS=1.04D-07 Max=3.80D-06 NDo=     1
 LinEq1:  Iter= 12 NonCon=     1 RMS=2.67D-08 Max=6.20D-07 NDo=     1
 LinEq1:  Iter= 13 NonCon=     1 RMS=6.70D-09 Max=9.23D-08 NDo=     1
 LinEq1:  Iter= 14 NonCon=     1 RMS=1.60D-09 Max=2.29D-08 NDo=     1
 LinEq1:  Iter= 15 NonCon=     1 RMS=3.33D-10 Max=8.55D-09 NDo=     1
 LinEq1:  Iter= 16 NonCon=     1 RMS=8.64D-11 Max=1.90D-09 NDo=     1
 LinEq1:  Iter= 17 NonCon=     0 RMS=2.17D-11 Max=2.92D-10 NDo=     1
 Linear equations converged to 1.000D-10 1.000D-09 after    17 iterations.
 End of Minotr F.D. properties file   721 does not exist.
 End of Minotr F.D. properties file   722 does not exist.
 End of Minotr F.D. properties file   788 does not exist.

 **********************************************************************

            Population analysis using the SCF density.

 **********************************************************************

 Orbital symmetries:
       Occupied  (A) (A) (A) (A) (A) (A) (A) (A) (A) (A) (A) (A)
                 (A) (A) (A) (A) (A) (A) (A) (A) (A) (A) (A) (A)
       Virtual   (A) (A) (A) (A) (A) (A) (A) (A) (A) (A) (A) (A)
                 (A) (A) (A) (A) (A) (A) (A) (A) (A) (A) (A) (A)
                 (A) (A) (A) (A) (A) (A) (A) (A) (A) (A) (A) (A)
                 (A) (A) (A) (A) (A) (A) (A) (A) (A) (A) (A) (A)
                 (A) (A) (A) (A) (A) (A) (A) (A) (A) (A) (A) (A)
                 (A) (A) (A) (A) (A) (A) (A) (A) (A) (A) (A) (A)
                 (A) (A) (A) (A) (A) (A) (A) (A) (A) (A) (A) (A)
                 (A) (A) (A) (A) (A) (A) (A) (A) (A) (A) (A) (A)
                 (A) (A) (A) (A) (A) (A) (A) (A) (A) (A) (A) (A)
                 (A) (A) (A) (A) (A) (A) (A) (A) (A) (A) (A) (A)
                 (A) (A) (A) (A) (A) (A) (A) (A) (A) (A) (A) (A)
                 (A) (A) (A) (A) (A) (A) (A) (A) (A) (A) (A) (A)
                 (A) (A) (A) (A) (A) (A) (A) (A) (A) (A) (A) (A)
                 (A) (A) (A) (A) (A) (A) (A) (A) (A) (A) (A) (A)
                 (A) (A) (A) (A) (A) (A) (A) (A) (A) (A) (A)
 The electronic state is 1-A.
 Alpha  occ. eigenvalues -- -104.96818 -20.74008 -20.63994 -20.63345 -15.94116
 Alpha  occ. eigenvalues --  -10.68540  -8.15290  -8.14913  -8.14908  -1.72681
 Alpha  occ. eigenvalues --   -1.48129  -1.44736  -1.13907  -0.92315  -0.82546
 Alpha  occ. eigenvalues --   -0.82425  -0.78694  -0.61265  -0.60938  -0.56153
 Alpha  occ. eigenvalues --   -0.54169  -0.53296  -0.50995  -0.50055
 Alpha virt. eigenvalues --   -0.08193   0.07616   0.09404   0.10652   0.11394
 Alpha virt. eigenvalues --    0.11416   0.15071   0.15608   0.18720   0.21347
 Alpha virt. eigenvalues --    0.24769   0.26881   0.27383   0.29772   0.31534
 Alpha virt. eigenvalues --    0.32575   0.34457   0.36563   0.37682   0.38251
 Alpha virt. eigenvalues --    0.40052   0.42171   0.44509   0.45220   0.46511
 Alpha virt. eigenvalues --    0.47831   0.49850   0.51494   0.55818   0.59401
 Alpha virt. eigenvalues --    0.61652   0.62252   0.71718   0.72766   0.78173
 Alpha virt. eigenvalues --    0.81155   0.88200   0.94074   0.95297   1.03334
 Alpha virt. eigenvalues --    1.05558   1.07093   1.13444   1.14749   1.15607
 Alpha virt. eigenvalues --    1.17059   1.20383   1.22232   1.22978   1.23669
 Alpha virt. eigenvalues --    1.26460   1.26952   1.28755   1.29009   1.30949
 Alpha virt. eigenvalues --    1.34000   1.34341   1.36064   1.36917   1.40641
 Alpha virt. eigenvalues --    1.47645   1.50536   1.51457   1.67221   1.70662
 Alpha virt. eigenvalues --    1.72994   1.74022   1.75757   1.80419   1.92291
 Alpha virt. eigenvalues --    1.97336   2.07849   2.29627   2.30473   2.32545
 Alpha virt. eigenvalues --    2.33359   2.39271   2.41712   2.43243   2.47806
 Alpha virt. eigenvalues --    2.50635   2.51728   2.54678   2.55462   2.65237
 Alpha virt. eigenvalues --    2.67335   2.79850   2.88709   3.00095   3.08375
 Alpha virt. eigenvalues --    3.38906   3.43402   3.48128   3.51663   3.65083
 Alpha virt. eigenvalues --    3.67073   3.79033   3.80290   3.91478   3.91715
 Alpha virt. eigenvalues --    3.96161   3.97931   3.99257   4.04819   4.22831
 Alpha virt. eigenvalues --    4.26758   4.35478   4.35594   4.40202   4.54732
 Alpha virt. eigenvalues --    4.73858   4.90955   5.00311   5.12960   5.30953
 Alpha virt. eigenvalues --    5.36910   5.37069   5.38425   5.42042   5.42507
 Alpha virt. eigenvalues --    5.44082   5.45218   5.53215   5.55995   5.57028
 Alpha virt. eigenvalues --    5.57585   5.58392   5.61527   5.62018   5.66828
 Alpha virt. eigenvalues --    5.67966   5.85213   5.88356   5.93549   5.95555
 Alpha virt. eigenvalues --    6.03518   6.04900   6.05769   6.13230   6.15236
 Alpha virt. eigenvalues --    6.33485   6.49903   6.63856   6.68744   6.91082
 Alpha virt. eigenvalues --    6.96631   7.11317   7.93647   8.05482   8.53158
 Alpha virt. eigenvalues --   10.41200  10.71569  10.86574  10.99570  11.50642
 Alpha virt. eigenvalues --   11.66423  14.92170  14.96956  14.98129  14.98994
 Alpha virt. eigenvalues --   14.99699  15.01476  15.06020  15.19306  15.31100
 Alpha virt. eigenvalues --   15.36589  15.41348  15.46525  15.77591  15.86858
 Alpha virt. eigenvalues --   16.09168  26.56930  26.65866  27.35845  37.78428
 Alpha virt. eigenvalues --   51.76586  52.13460  52.24301 219.26965
          Condensed to atoms (all electrons):
               1          2          3          4          5
     1  N    6.264629  -0.425324  -0.231706  -0.158942   0.116495
     2  O   -0.425324   9.331394  -0.024658  -0.205618  -0.047165
     3  O   -0.231706  -0.024658   9.100791  -0.173546   0.004901
     4  O   -0.158942  -0.205618  -0.173546   8.926070  -0.027219
     5  Cl   0.116495  -0.047165   0.004901  -0.027219  16.722677
 Mulliken charges:
               1
     1  N    1.434847
     2  O   -0.628630
     3  O   -0.675783
     4  O   -0.360745
     5  Cl   0.230311
 Sum of Mulliken charges =   0.00000
 Mulliken charges with hydrogens summed into heavy atoms:
               1
     1  N    1.434847
     2  O   -0.628630
     3  O   -0.675783
     4  O   -0.360745
     5  Cl   0.230311
 Electronic spatial extent (au):  <R**2>=            526.9849
 Charge=              0.0000 electrons
 Dipole moment (field-independent basis, Debye):
    X=             -3.1059    Y=             -0.1872    Z=             -0.0000  Tot=              3.1115
 Quadrupole moment (field-independent basis, Debye-Ang):
   XX=            -32.2333   YY=            -36.7917   ZZ=            -32.9216
   XY=             -0.7550   XZ=              0.0022   YZ=             -0.0003
 Traceless Quadrupole moment (field-independent basis, Debye-Ang):
   XX=              1.7489   YY=             -2.8095   ZZ=              1.0606
   XY=             -0.7550   XZ=              0.0022   YZ=             -0.0003
 Octapole moment (field-independent basis, Debye-Ang**2):
  XXX=            -23.4547  YYY=             -1.5503  ZZZ=              0.0007  XYY=             -1.7035
  XXY=              3.8393  XXZ=             -0.0012  XZZ=              2.8788  YZZ=              0.1049
  YYZ=             -0.0002  XYZ=              0.0004
 Hexadecapole moment (field-independent basis, Debye-Ang**3):
 XXXX=           -453.0619 YYYY=           -106.8516 ZZZZ=            -29.2222 XXXY=             -6.4808
 XXXZ=              0.0060 YYYX=             -2.0785 YYYZ=              0.0010 ZZZX=             -0.0074
 ZZZY=              0.0018 XXYY=           -101.1512 XXZZ=            -85.4698 YYZZ=            -22.6816
 XXYZ=             -0.0012 YYXZ=             -0.0025 ZZXY=             -0.0879
 N-N= 2.195022103358D+02 E-N=-2.191376740378D+03  KE= 7.378336643728D+02
 Calling FoFJK, ICntrl=  10005127 FMM=F ISym2X=0 I1Cent= 0 IOpClX= 0 NMat=1 NMatS=1 NMatT=0.
 ***** Axes restored to original set *****
 -------------------------------------------------------------------
 Center     Atomic                   Forces (Hartrees/Bohr)
 Number     Number              X              Y              Z
 -------------------------------------------------------------------
      1        7           0.003337705    0.000976969   -0.000047739
      2        8           0.000386496   -0.005313258    0.000017583
      3        8          -0.005437072    0.002540230    0.000017428
      4        8          -0.001098532    0.002884059    0.000012421
      5       17           0.002811404   -0.001088000    0.000000307
 -------------------------------------------------------------------
 Cartesian Forces:  Max     0.005437072 RMS     0.002517998

 GradGradGradGradGradGradGradGradGradGradGradGradGradGradGradGradGradGrad
 Berny optimization.
 FormGI is forming the generalized inverse of G from B-inverse, IUseBI=4.
 Internal  Forces:  Max     0.005999001 RMS     0.002703106
 Search for a local minimum.
 Step number   1 out of a maximum of   21
 All quantities printed in internal units (Hartrees-Bohrs-Radians)
 Mixed Optimization -- RFO/linear search
 Second derivative matrix not updated -- first step.
 The second derivative matrix:
                          R1        R2        R3        R4        A1
           R1           1.15933
           R2           0.00000   1.17831
           R3           0.00000   0.00000   0.59989
           R4           0.00000   0.00000   0.00000   0.13151
           A1           0.00000   0.00000   0.00000   0.00000   0.25000
           A2           0.00000   0.00000   0.00000   0.00000   0.00000
           A3           0.00000   0.00000   0.00000   0.00000   0.00000
           A4           0.00000   0.00000   0.00000   0.00000   0.00000
           D1           0.00000   0.00000   0.00000   0.00000   0.00000
           D2           0.00000   0.00000   0.00000   0.00000   0.00000
           D3           0.00000   0.00000   0.00000   0.00000   0.00000
                          A2        A3        A4        D1        D2
           A2           0.25000
           A3           0.00000   0.25000
           A4           0.00000   0.00000   0.25000
           D1           0.00000   0.00000   0.00000   0.04257
           D2           0.00000   0.00000   0.00000   0.00000   0.02248
           D3           0.00000   0.00000   0.00000   0.00000   0.00000
                          D3
           D3           0.02248
 ITU=  0
     Eigenvalues ---    0.02248   0.03679   0.13151   0.25000   0.25000
     Eigenvalues ---    0.25000   0.59989   1.15933   1.17831
 RFO step:  Lambda=-1.38837910D-04 EMin= 2.24770367D-02
 Linear search not attempted -- first point.
 Iteration  1 RMS(Cart)=  0.00813813 RMS(Int)=  0.00000570
 Iteration  2 RMS(Cart)=  0.00001082 RMS(Int)=  0.00000034
 Iteration  3 RMS(Cart)=  0.00000000 RMS(Int)=  0.00000034
 Variable       Old X    -DE/DX   Delta X   Delta X   Delta X     New X
                                 (Linear)    (Quad)   (Total)
    R1        2.22862  -0.00529   0.00000  -0.00456  -0.00456   2.22406
    R2        2.22244  -0.00600   0.00000  -0.00509  -0.00509   2.21735
    R3        2.50949  -0.00246   0.00000  -0.00411  -0.00411   2.50538
    R4        3.88444  -0.00301   0.00000  -0.02288  -0.02288   3.86156
    A1        2.22923   0.00060   0.00000   0.00240   0.00240   2.23163
    A2        2.06479  -0.00085   0.00000  -0.00341  -0.00341   2.06139
    A3        1.98916   0.00025   0.00000   0.00101   0.00101   1.99017
    A4        2.05300  -0.00036   0.00000  -0.00142  -0.00142   2.05158
    D1       -3.14141  -0.00002   0.00000  -0.00056  -0.00056   3.14121
    D2        0.00054   0.00001   0.00000   0.00030   0.00030   0.00083
    D3       -3.14089  -0.00001   0.00000  -0.00021  -0.00021  -3.14110
         Item               Value     Threshold  Converged?
 Maximum Force            0.005999     0.000450     NO 
 RMS     Force            0.002703     0.000300     NO 
 Maximum Displacement     0.022509     0.001800     NO 
 RMS     Displacement     0.008134     0.001200     NO 
 Predicted change in Energy=-6.946119D-05
 GradGradGradGradGradGradGradGradGradGradGradGradGradGradGradGradGradGrad

                          Input orientation:                          
 ---------------------------------------------------------------------
 Center     Atomic      Atomic             Coordinates (Angstroms)
 Number     Number       Type             X           Y           Z
 ---------------------------------------------------------------------
      1          7           0        1.065237    0.051257   -0.000017
      2          8           0        0.833670    1.205171    0.000131
      3          8           0        2.115185   -0.472586   -0.000165
      4          8           0        0.041578   -0.791265    0.000436
      5         17           0       -1.839465    0.007083   -0.000161
 ---------------------------------------------------------------------
                    Distance matrix (angstroms):
                    1          2          3          4          5
     1  N    0.000000
     2  O    1.176920   0.000000
     3  O    1.173372   2.111196   0.000000
     4  O    1.325790   2.147828   2.097952   0.000000
     5  Cl   2.905037   2.929345   3.983633   2.043449   0.000000
 Stoichiometry    ClNO3
 Framework group  C1[X(ClNO3)]
 Deg. of freedom     9
 Full point group                 C1      NOp   1
 Largest Abelian subgroup         C1      NOp   1
 Largest concise Abelian subgroup C1      NOp   1
                         Standard orientation:                         
 ---------------------------------------------------------------------
 Center     Atomic      Atomic             Coordinates (Angstroms)
 Number     Number       Type             X           Y           Z
 ---------------------------------------------------------------------
      1          7           0        1.062925    0.051795   -0.000025
      2          8           0        0.830554    1.205547    0.000123
      3          8           0        2.113239   -0.471316   -0.000172
      4          8           0        0.039855   -0.791441    0.000428
      5         17           0       -1.841744    0.005595   -0.000168
 ---------------------------------------------------------------------
 Rotational constants (GHZ):          13.7119894           2.3301016           1.9916561
 Standard basis: 6-311++G(3df,3pd) (5D, 7F)
 There are   233 symmetry adapted cartesian basis functions of A   symmetry.
 There are   203 symmetry adapted basis functions of A   symmetry.
   203 basis functions,   307 primitive gaussians,   233 cartesian basis functions
    24 alpha electrons       24 beta electrons
       nuclear repulsion energy       220.2692079607 Hartrees.
 NAtoms=    5 NActive=    5 NUniq=    5 SFac= 1.00D+00 NAtFMM=   60 NAOKFM=F Big=F
 Integral buffers will be    131072 words long.
 Raffenetti 1 integral format.
 Two-electron integral symmetry is turned on.
 One-electron integrals computed using PRISM.
 NBasis=   203 RedAO= T EigKep=  1.37D-04  NBF=   203
 NBsUse=   203 1.00D-06 EigRej= -1.00D+00 NBFU=   203
 Initial guess from the checkpoint file:  "/localscratch/alrebei.28376405.0/Gau-32758.chk"
 B after Tr=    -0.000000   -0.000000   -0.000000
         Rot=    1.000000   -0.000000   -0.000001   -0.000279 Ang=  -0.03 deg.
 ExpMin= 4.83D-02 ExpMax= 1.06D+05 ExpMxC= 3.62D+03 IAcc=2 IRadAn=         4 AccDes= 0.00D+00
 Harris functional with IExCor=  205 and IRadAn=       4 diagonalized for initial guess.
 HarFok:  IExCor=  205 AccDes= 0.00D+00 IRadAn=         4 IDoV= 1 UseB2=F ITyADJ=14
 ICtDFT=  3500011 ScaDFX=  1.000000  1.000000  1.000000  1.000000
 FoFCou: FMM=F IPFlag=           0 FMFlag=      100000 FMFlg1=           0
         NFxFlg=           0 DoJE=T BraDBF=F KetDBF=T FulRan=T
         wScrn=  0.000000 ICntrl=       500 IOpCl=  0 I1Cent=   200000004 NGrid=           0
         NMat0=    1 NMatS0=      1 NMatT0=    0 NMatD0=    1 NMtDS0=    0 NMtDT0=    0
 Petite list used in FoFCou.
 Keep R1 ints in memory in canonical form, NReq=220787261.
 LinEq1:  Iter=  0 NonCon=     1 RMS=5.18D-05 Max=9.04D-04 NDo=     1
 AX will form     1 AO Fock derivatives at one time.
 LinEq1:  Iter=  1 NonCon=     1 RMS=2.52D-05 Max=7.22D-04 NDo=     1
 LinEq1:  Iter=  2 NonCon=     1 RMS=1.01D-05 Max=3.92D-04 NDo=     1
 LinEq1:  Iter=  3 NonCon=     1 RMS=4.83D-06 Max=1.62D-04 NDo=     1
 LinEq1:  Iter=  4 NonCon=     1 RMS=1.84D-06 Max=5.11D-05 NDo=     1
 LinEq1:  Iter=  5 NonCon=     1 RMS=6.84D-07 Max=1.43D-05 NDo=     1
 LinEq1:  Iter=  6 NonCon=     1 RMS=3.31D-07 Max=8.04D-06 NDo=     1
 LinEq1:  Iter=  7 NonCon=     1 RMS=1.28D-07 Max=3.46D-06 NDo=     1
 LinEq1:  Iter=  8 NonCon=     1 RMS=5.67D-08 Max=1.57D-06 NDo=     1
 LinEq1:  Iter=  9 NonCon=     1 RMS=2.27D-08 Max=3.18D-07 NDo=     1
 LinEq1:  Iter= 10 NonCon=     1 RMS=8.47D-09 Max=1.81D-07 NDo=     1
 LinEq1:  Iter= 11 NonCon=     0 RMS=2.21D-09 Max=2.88D-08 NDo=     1
 Linear equations converged to 9.269D-09 9.269D-08 after    11 iterations.
     Accept linear search using points  1 and  2.
     Minimum is close to point  2 DX= -1.52D-04 DF= -9.09D-13 DXR=  1.52D-04 DFR=  2.22D-08 which will be used.
 LinEq1:  Iter=  0 NonCon=     1 RMS=5.09D-08 Max=1.43D-06 NDo=     1
 LinEq1:  Iter=  1 NonCon=     1 RMS=2.48D-08 Max=7.20D-07 NDo=     1
 LinEq1:  Iter=  2 NonCon=     1 RMS=1.20D-08 Max=4.08D-07 NDo=     1
 LinEq1:  Iter=  3 NonCon=     1 RMS=4.03D-09 Max=6.70D-08 NDo=     1
 LinEq1:  Iter=  4 NonCon=     1 RMS=1.86D-09 Max=4.90D-08 NDo=     1
 LinEq1:  Iter=  5 NonCon=     1 RMS=8.37D-10 Max=1.52D-08 NDo=     1
 LinEq1:  Iter=  6 NonCon=     1 RMS=2.59D-10 Max=5.99D-09 NDo=     1
 LinEq1:  Iter=  7 NonCon=     1 RMS=1.38D-10 Max=3.08D-09 NDo=     1
 LinEq1:  Iter=  8 NonCon=     1 RMS=5.80D-11 Max=1.18D-09 NDo=     1
 LinEq1:  Iter=  9 NonCon=     0 RMS=1.65D-11 Max=3.33D-10 NDo=     1
 Linear equations converged to 6.572D-11 6.572D-10 after     9 iterations.
 SCF Done:  E(RHF) =  -738.353995647     a.u. after    3 cycles
            Convg  =    0.8176D-08                    23 Fock formations.
              S**2 =  0.0000                  -V/T =  2.0007
 ExpMin= 4.83D-02 ExpMax= 1.06D+05 ExpMxC= 3.62D+03 IAcc=3 IRadAn=         5 AccDes= 0.00D+00
 HarFok:  IExCor=  205 AccDes= 0.00D+00 IRadAn=         5 IDoV=-2 UseB2=F ITyADJ=14
 ICtDFT= 12500011 ScaDFX=  1.000000  1.000000  1.000000  1.000000
 Range of M.O.s used for correlation:    10   203
 NBasis=   203 NAE=    24 NBE=    24 NFC=     9 NFV=     0
 NROrb=    194 NOA=    15 NOB=    15 NVA=   179 NVB=   179

 **** Warning!!: The largest alpha MO coefficient is  0.38034672D+02

 Orbital symmetries:
       Occupied  (A) (A) (A) (A) (A) (A) (A) (A) (A) (A) (A) (A)
                 (A) (A) (A) (A) (A) (A) (A) (A) (A) (A) (A) (A)
       Virtual   (A) (A) (A) (A) (A) (A) (A) (A) (A) (A) (A) (A)
                 (A) (A) (A) (A) (A) (A) (A) (A) (A) (A) (A) (A)
                 (A) (A) (A) (A) (A) (A) (A) (A) (A) (A) (A) (A)
                 (A) (A) (A) (A) (A) (A) (A) (A) (A) (A) (A) (A)
                 (A) (A) (A) (A) (A) (A) (A) (A) (A) (A) (A) (A)
                 (A) (A) (A) (A) (A) (A) (A) (A) (A) (A) (A) (A)
                 (A) (A) (A) (A) (A) (A) (A) (A) (A) (A) (A) (A)
                 (A) (A) (A) (A) (A) (A) (A) (A) (A) (A) (A) (A)
                 (A) (A) (A) (A) (A) (A) (A) (A) (A) (A) (A) (A)
                 (A) (A) (A) (A) (A) (A) (A) (A) (A) (A) (A) (A)
                 (A) (A) (A) (A) (A) (A) (A) (A) (A) (A) (A) (A)
                 (A) (A) (A) (A) (A) (A) (A) (A) (A) (A) (A) (A)
                 (A) (A) (A) (A) (A) (A) (A) (A) (A) (A) (A) (A)
                 (A) (A) (A) (A) (A) (A) (A) (A) (A) (A) (A) (A)
                 (A) (A) (A) (A) (A) (A) (A) (A) (A) (A) (A)
 Generating guess from densities on rwf.
 Convergence on wavefunction:    0.000001000000000
 Iteration     1 Dimension     3 NMult     0 NNew      3
 CISAX will form     3 AO SS matrices at one time.
 Iteration     2 Dimension     6 NMult     3 NNew      3
 Iteration     3 Dimension     9 NMult     6 NNew      3
 Iteration     4 Dimension    12 NMult     9 NNew      3
 Iteration     5 Dimension    15 NMult    12 NNew      3
 Iteration     6 Dimension    18 NMult    15 NNew      3
 Iteration     7 Dimension    21 NMult    18 NNew      3
 Iteration     8 Dimension    24 NMult    21 NNew      3
 Iteration     9 Dimension    26 NMult    24 NNew      2
 Iteration    10 Dimension    28 NMult    26 NNew      2
 Iteration    11 Dimension    29 NMult    28 NNew      1
 Iteration    12 Dimension    30 NMult    29 NNew      1
 Iteration    13 Dimension    31 NMult    30 NNew      1
 Iteration    14 Dimension    32 NMult    31 NNew      1
 ***********************************************************************
 Excited states from <AA,BB:AA,BB> singles matrix:
 ***********************************************************************
 
 Ground to excited state transition densities written to RWF  633
 Ground to excited state transition electric dipole moments (Au):
       state          X           Y           Z        Dip. S.      Osc.
         1         0.0000      0.0000     -0.0234      0.0005      0.0000
         2        -0.0427      0.0135     -0.0000      0.0020      0.0001
         3         0.0003     -0.0001     -0.0228      0.0005      0.0001
 Ground to excited state transition velocity dipole moments (Au):
       state          X           Y           Z        Dip. S.      Osc.
         1         0.0000     -0.0000     -0.0754      0.0057      0.0404
         2        -0.0128     -0.0527      0.0000      0.0029      0.0183
         3        -0.0000     -0.0000      0.0173      0.0003      0.0012
 Ground to excited state transition magnetic dipole moments (Au):
       state          X           Y           Z
         1         0.1473      0.4856     -0.0004
         2         0.0001     -0.0005     -0.8293
         3         0.3660      0.7426     -0.0007
 Ground to excited state transition velocity quadrupole moments (Au):
       state          XX          YY          ZZ          XY          XZ          YZ
         1         0.0000      0.0000     -0.0000      0.0001      0.1615      0.0262
         2         0.1534      0.0202     -0.0012      0.1648     -0.0001      0.0000
         3        -0.0000     -0.0001      0.0001     -0.0000      0.0136     -0.0449
 <0|del|b> * <b|rxdel|0> + <0|del|b> * <b|delr+rdel|0>
 Rotatory Strengths (R) in cgs (10**-40 erg-esu-cm/Gauss)
       state          XX          YY          ZZ    R(velocity)    E-M Angle
         1         0.0164      0.1442     -0.1047      0.0187       90.00
         2        -0.0007     -0.1157      0.1068     -0.0032       90.00
         3        -0.0515     -0.0458     -0.0518     -0.0497       90.00
 1/2[<0|r|b>*<b|rxdel|0> + (<0|rxdel|b>*<b|r|0>)*]
 Rotatory Strengths (R) in cgs (10**-40 erg-esu-cm/Gauss)
       state          XX          YY          ZZ     R(length)
         1        -0.0016     -0.0003     -0.0061     -0.0027
         2         0.0033      0.0050     -0.0014      0.0023
         3        -0.0758      0.0563     -0.0116     -0.0104
  1/2[<0|del|b>*<b|r|0> + (<0|r|b>*<b|del|0>)*] (Au)
       state          X           Y           Z        Dip. S.   Osc.(frdel)
         1         0.0000     -0.0000      0.0018     -0.0018     -0.0012
         2         0.0005     -0.0007     -0.0000      0.0002      0.0001
         3        -0.0000      0.0000     -0.0004      0.0004      0.0003

 Excitation energies and oscillator strengths:
 
 Excited State   1:      Singlet-A      2.5522 eV  485.79 nm  f=0.0000  <S**2>=0.000
      22 -> 25         0.68279
      24 -> 25         0.11849
 This state for optimization and/or second-order correction.
 Total Energy, E(CIS/TDA) =  -738.260203522    
 Copying the excited state density for this state as the 1-particle RhoCI density.
 
 Excited State   2:      Singlet-A      2.9075 eV  426.42 nm  f=0.0001  <S**2>=0.000
      21 -> 25         0.65670
      23 -> 25         0.19921
 
 Excited State   3:      Singlet-A      4.6163 eV  268.58 nm  f=0.0001  <S**2>=0.000
      16 -> 25         0.14162
      19 -> 25         0.67322
 SavETr:  write IOETrn=   770 NScale= 10 NData=  16 NLR=1 NState=    3 LETran=      64.
          IDoAtm=11111
          Differentiating once with respect to electric field.
                with respect to dipole field.
          Differentiating once with respect to nuclear coordinates.
 Keep R1 ints in memory in canonical form, NReq=220788045.
          There are     1 degrees of freedom in the 1st order CPHF.  IDoFFX=0 NUNeed=     1.
 LinEq1:  Iter=  0 NonCon=     1 RMS=4.39D-03 Max=1.24D-01 NDo=     1
 AX will form     1 AO Fock derivatives at one time.
 LinEq1:  Iter=  1 NonCon=     1 RMS=2.51D-03 Max=6.12D-02 NDo=     1
 LinEq1:  Iter=  2 NonCon=     1 RMS=5.71D-04 Max=1.05D-02 NDo=     1
 LinEq1:  Iter=  3 NonCon=     1 RMS=2.48D-04 Max=3.72D-03 NDo=     1
 LinEq1:  Iter=  4 NonCon=     1 RMS=1.25D-04 Max=3.30D-03 NDo=     1
 LinEq1:  Iter=  5 NonCon=     1 RMS=4.54D-05 Max=1.10D-03 NDo=     1
 LinEq1:  Iter=  6 NonCon=     1 RMS=1.54D-05 Max=4.25D-04 NDo=     1
 LinEq1:  Iter=  7 NonCon=     1 RMS=7.61D-06 Max=1.66D-04 NDo=     1
 LinEq1:  Iter=  8 NonCon=     1 RMS=2.71D-06 Max=4.16D-05 NDo=     1
 LinEq1:  Iter=  9 NonCon=     1 RMS=8.93D-07 Max=1.90D-05 NDo=     1
 LinEq1:  Iter= 10 NonCon=     1 RMS=2.73D-07 Max=8.12D-06 NDo=     1
 LinEq1:  Iter= 11 NonCon=     1 RMS=1.01D-07 Max=3.64D-06 NDo=     1
 LinEq1:  Iter= 12 NonCon=     1 RMS=2.58D-08 Max=5.80D-07 NDo=     1
 LinEq1:  Iter= 13 NonCon=     1 RMS=6.46D-09 Max=8.86D-08 NDo=     1
 LinEq1:  Iter= 14 NonCon=     1 RMS=1.54D-09 Max=2.23D-08 NDo=     1
 LinEq1:  Iter= 15 NonCon=     1 RMS=3.21D-10 Max=8.30D-09 NDo=     1
 LinEq1:  Iter= 16 NonCon=     1 RMS=8.31D-11 Max=1.81D-09 NDo=     1
 LinEq1:  Iter= 17 NonCon=     0 RMS=2.06D-11 Max=2.76D-10 NDo=     1
 Linear equations converged to 1.000D-10 1.000D-09 after    17 iterations.
 End of Minotr F.D. properties file   721 does not exist.
 End of Minotr F.D. properties file   722 does not exist.
 End of Minotr F.D. properties file   788 does not exist.
 Calling FoFJK, ICntrl=  10005127 FMM=F ISym2X=0 I1Cent= 0 IOpClX= 0 NMat=1 NMatS=1 NMatT=0.
 ***** Axes restored to original set *****
 -------------------------------------------------------------------
 Center     Atomic                   Forces (Hartrees/Bohr)
 Number     Number              X              Y              Z
 -------------------------------------------------------------------
      1        7           0.001141523    0.000364930    0.000079895
      2        8           0.000500167   -0.000179192   -0.000028261
      3        8          -0.000786726    0.000503105   -0.000029869
      4        8          -0.001224571   -0.000300495   -0.000020260
      5       17           0.000369607   -0.000388348   -0.000001505
 -------------------------------------------------------------------
 Cartesian Forces:  Max     0.001224571 RMS     0.000546282

 GradGradGradGradGradGradGradGradGradGradGradGradGradGradGradGradGradGrad
 Berny optimization.
 Using GEDIIS/GDIIS optimizer.
 FormGI is forming the generalized inverse of G from B-inverse, IUseBI=4.
 Internal  Forces:  Max     0.001097801 RMS     0.000574461
 Search for a local minimum.
 Step number   2 out of a maximum of   21
 All quantities printed in internal units (Hartrees-Bohrs-Radians)
 Mixed Optimization -- En-DIIS/RFO-DIIS
 Update second derivatives using D2CorX and points    1    2
 DE= -7.39D-05 DEPred=-6.95D-05 R= 1.06D+00
 TightC=F SS=  1.41D+00  RLast= 2.47D-02 DXNew= 5.0454D-01 7.3980D-02
 Trust test= 1.06D+00 RLast= 2.47D-02 DXMaxT set to 3.00D-01
 The second derivative matrix:
                          R1        R2        R3        R4        A1
           R1           1.15042
           R2          -0.03382   1.11595
           R3           0.04293   0.03185   0.65335
           R4          -0.01786  -0.03219   0.01535   0.11491
           A1          -0.01596  -0.01333  -0.01693  -0.00651   0.25523
           A2           0.02339   0.01966   0.02455   0.00961  -0.00758
           A3          -0.00743  -0.00633  -0.00762  -0.00310   0.00234
           A4           0.03170   0.03039   0.02584   0.01504  -0.00759
           D1           0.00131   0.00122   0.00116   0.00060  -0.00035
           D2          -0.00068  -0.00065  -0.00054  -0.00032   0.00016
           D3           0.00088   0.00087   0.00067   0.00043  -0.00019
                          A2        A3        A4        D1        D2
           A2           0.26097
           A3          -0.00339   0.25105
           A4           0.01094  -0.00335   0.25972
           D1           0.00050  -0.00015   0.00046   0.04259
           D2          -0.00023   0.00007  -0.00020  -0.00001   0.02248
           D3           0.00028  -0.00009   0.00024   0.00001  -0.00000
                          D3
           D3           0.02248
 ITU=  1  0
 Use linear search instead of GDIIS.
     Eigenvalues ---    0.02248   0.03684   0.11045   0.24927   0.25000
     Eigenvalues ---    0.27262   0.65085   1.10602   1.17242
 RFO step:  Lambda=-1.03444365D-05 EMin= 2.24769384D-02
 Quartic linear search produced a step of  0.06246.
 Iteration  1 RMS(Cart)=  0.00371384 RMS(Int)=  0.00000539
 Iteration  2 RMS(Cart)=  0.00000631 RMS(Int)=  0.00000044
 Iteration  3 RMS(Cart)=  0.00000000 RMS(Int)=  0.00000044
 Variable       Old X    -DE/DX   Delta X   Delta X   Delta X     New X
                                 (Linear)    (Quad)   (Total)
    R1        2.22406  -0.00027  -0.00028  -0.00031  -0.00059   2.22347
    R2        2.21735  -0.00093  -0.00032  -0.00090  -0.00122   2.21614
    R3        2.50538   0.00110  -0.00026   0.00190   0.00164   2.50702
    R4        3.86156  -0.00049  -0.00143  -0.00421  -0.00564   3.85592
    A1        2.23163  -0.00041   0.00015  -0.00172  -0.00157   2.23006
    A2        2.06139   0.00060  -0.00021   0.00252   0.00231   2.06369
    A3        1.99017  -0.00019   0.00006  -0.00080  -0.00074   1.98943
    A4        2.05158   0.00082  -0.00009   0.00348   0.00339   2.05497
    D1        3.14121   0.00004  -0.00004   0.00107   0.00103  -3.14094
    D2        0.00083  -0.00001   0.00002  -0.00035  -0.00033   0.00050
    D3       -3.14110   0.00002  -0.00001   0.00061   0.00059  -3.14051
         Item               Value     Threshold  Converged?
 Maximum Force            0.001098     0.000450     NO 
 RMS     Force            0.000574     0.000300     NO 
 Maximum Displacement     0.007803     0.001800     NO 
 RMS     Displacement     0.003711     0.001200     NO 
 Predicted change in Energy=-5.453660D-06
 GradGradGradGradGradGradGradGradGradGradGradGradGradGradGradGradGradGrad

                          Input orientation:                          
 ---------------------------------------------------------------------
 Center     Atomic      Atomic             Coordinates (Angstroms)
 Number     Number       Type             X           Y           Z
 ---------------------------------------------------------------------
      1          7           0        1.065207    0.052264    0.000267
      2          8           0        0.837799    1.206687    0.000095
      3          8           0        2.113539   -0.473371   -0.000397
      4          8           0        0.039831   -0.789535    0.000536
      5         17           0       -1.840172    0.003614   -0.000277
 ---------------------------------------------------------------------
                    Distance matrix (angstroms):
                    1          2          3          4          5
     1  N    0.000000
     2  O    1.176608   0.000000
     3  O    1.172729   2.109528   0.000000
     4  O    1.326658   2.149802   2.097671   0.000000
     5  Cl   2.905786   2.935798   3.982379   2.040465   0.000000
 Stoichiometry    ClNO3
 Framework group  C1[X(ClNO3)]
 Deg. of freedom     9
 Full point group                 C1      NOp   1
 Largest Abelian subgroup         C1      NOp   1
 Largest concise Abelian subgroup C1      NOp   1
                         Standard orientation:                         
 ---------------------------------------------------------------------
 Center     Atomic      Atomic             Coordinates (Angstroms)
 Number     Number       Type             X           Y           Z
 ---------------------------------------------------------------------
      1          7           0        1.063128    0.051423    0.000288
      2          8           0        0.837141    1.206124    0.000116
      3          8           0        2.110812   -0.475502   -0.000377
      4          8           0        0.036716   -0.789113    0.000556
      5         17           0       -1.842309    0.006351   -0.000257
 ---------------------------------------------------------------------
 Rotational constants (GHZ):          13.7020983           2.3291711           1.9907678
 Standard basis: 6-311++G(3df,3pd) (5D, 7F)
 There are   233 symmetry adapted cartesian basis functions of A   symmetry.
 There are   203 symmetry adapted basis functions of A   symmetry.
   203 basis functions,   307 primitive gaussians,   233 cartesian basis functions
    24 alpha electrons       24 beta electrons
       nuclear repulsion energy       220.2730929048 Hartrees.
 NAtoms=    5 NActive=    5 NUniq=    5 SFac= 1.00D+00 NAtFMM=   60 NAOKFM=F Big=F
 Integral buffers will be    131072 words long.
 Raffenetti 1 integral format.
 Two-electron integral symmetry is turned on.
 One-electron integrals computed using PRISM.
 NBasis=   203 RedAO= T EigKep=  1.37D-04  NBF=   203
 NBsUse=   203 1.00D-06 EigRej= -1.00D+00 NBFU=   203
 Initial guess from the checkpoint file:  "/localscratch/alrebei.28376405.0/Gau-32758.chk"
 B after Tr=    -0.000000   -0.000000   -0.000000
         Rot=    1.000000    0.000001    0.000008    0.000739 Ang=   0.08 deg.
 Keep R1 ints in memory in canonical form, NReq=220787261.
 LinEq1:  Iter=  0 NonCon=     1 RMS=3.37D-05 Max=6.85D-04 NDo=     1
 AX will form     1 AO Fock derivatives at one time.
 LinEq1:  Iter=  1 NonCon=     1 RMS=6.48D-06 Max=1.83D-04 NDo=     1
 LinEq1:  Iter=  2 NonCon=     1 RMS=4.34D-06 Max=1.30D-04 NDo=     1
 LinEq1:  Iter=  3 NonCon=     1 RMS=1.60D-06 Max=6.13D-05 NDo=     1
 LinEq1:  Iter=  4 NonCon=     1 RMS=6.15D-07 Max=1.34D-05 NDo=     1
 LinEq1:  Iter=  5 NonCon=     1 RMS=3.44D-07 Max=7.44D-06 NDo=     1
 LinEq1:  Iter=  6 NonCon=     1 RMS=1.30D-07 Max=2.05D-06 NDo=     1
 LinEq1:  Iter=  7 NonCon=     1 RMS=4.94D-08 Max=1.33D-06 NDo=     1
 LinEq1:  Iter=  8 NonCon=     1 RMS=2.18D-08 Max=4.90D-07 NDo=     1
 LinEq1:  Iter=  9 NonCon=     1 RMS=7.18D-09 Max=1.13D-07 NDo=     1
 LinEq1:  Iter= 10 NonCon=     0 RMS=2.81D-09 Max=4.33D-08 NDo=     1
 Linear equations converged to 9.269D-09 9.269D-08 after    10 iterations.
     Accept linear search using points  1 and  2.
     Minimum is close to point  2 DX= -8.30D-05 DF= -1.14D-13 DXR=  8.30D-05 DFR=  4.78D-09 which will be used.
 LinEq1:  Iter=  0 NonCon=     1 RMS=3.48D-08 Max=9.31D-07 NDo=     1
 LinEq1:  Iter=  1 NonCon=     1 RMS=1.24D-08 Max=1.89D-07 NDo=     1
 LinEq1:  Iter=  2 NonCon=     1 RMS=6.59D-09 Max=1.57D-07 NDo=     1
 LinEq1:  Iter=  3 NonCon=     1 RMS=3.19D-09 Max=9.24D-08 NDo=     1
 LinEq1:  Iter=  4 NonCon=     1 RMS=1.39D-09 Max=3.23D-08 NDo=     1
 LinEq1:  Iter=  5 NonCon=     1 RMS=5.81D-10 Max=1.41D-08 NDo=     1
 LinEq1:  Iter=  6 NonCon=     1 RMS=1.85D-10 Max=3.77D-09 NDo=     1
 LinEq1:  Iter=  7 NonCon=     1 RMS=5.73D-11 Max=1.05D-09 NDo=     1
 LinEq1:  Iter=  8 NonCon=     1 RMS=2.72D-11 Max=6.52D-10 NDo=     1
 LinEq1:  Iter=  9 NonCon=     0 RMS=1.34D-11 Max=3.51D-10 NDo=     1
 Linear equations converged to 4.686D-11 4.686D-10 after     9 iterations.
 SCF Done:  E(RHF) =  -738.354473147     a.u. after    3 cycles
            Convg  =    0.8292D-08                    22 Fock formations.
              S**2 =  0.0000                  -V/T =  2.0007
 ExpMin= 4.83D-02 ExpMax= 1.06D+05 ExpMxC= 3.62D+03 IAcc=3 IRadAn=         5 AccDes= 0.00D+00
 HarFok:  IExCor=  205 AccDes= 0.00D+00 IRadAn=         5 IDoV=-2 UseB2=F ITyADJ=14
 ICtDFT= 12500011 ScaDFX=  1.000000  1.000000  1.000000  1.000000
 Range of M.O.s used for correlation:    10   203
 NBasis=   203 NAE=    24 NBE=    24 NFC=     9 NFV=     0
 NROrb=    194 NOA=    15 NOB=    15 NVA=   179 NVB=   179

 **** Warning!!: The largest alpha MO coefficient is  0.38097466D+02

 Orbital symmetries:
       Occupied  (A) (A) (A) (A) (A) (A) (A) (A) (A) (A) (A) (A)
                 (A) (A) (A) (A) (A) (A) (A) (A) (A) (A) (A) (A)
       Virtual   (A) (A) (A) (A) (A) (A) (A) (A) (A) (A) (A) (A)
                 (A) (A) (A) (A) (A) (A) (A) (A) (A) (A) (A) (A)
                 (A) (A) (A) (A) (A) (A) (A) (A) (A) (A) (A) (A)
                 (A) (A) (A) (A) (A) (A) (A) (A) (A) (A) (A) (A)
                 (A) (A) (A) (A) (A) (A) (A) (A) (A) (A) (A) (A)
                 (A) (A) (A) (A) (A) (A) (A) (A) (A) (A) (A) (A)
                 (A) (A) (A) (A) (A) (A) (A) (A) (A) (A) (A) (A)
                 (A) (A) (A) (A) (A) (A) (A) (A) (A) (A) (A) (A)
                 (A) (A) (A) (A) (A) (A) (A) (A) (A) (A) (A) (A)
                 (A) (A) (A) (A) (A) (A) (A) (A) (A) (A) (A) (A)
                 (A) (A) (A) (A) (A) (A) (A) (A) (A) (A) (A) (A)
                 (A) (A) (A) (A) (A) (A) (A) (A) (A) (A) (A) (A)
                 (A) (A) (A) (A) (A) (A) (A) (A) (A) (A) (A) (A)
                 (A) (A) (A) (A) (A) (A) (A) (A) (A) (A) (A) (A)
                 (A) (A) (A) (A) (A) (A) (A) (A) (A) (A) (A)
 Generating guess from densities on rwf.
 Convergence on wavefunction:    0.000001000000000
 Iteration     1 Dimension     3 NMult     0 NNew      3
 CISAX will form     3 AO SS matrices at one time.
 Iteration     2 Dimension     6 NMult     3 NNew      3
 Iteration     3 Dimension     9 NMult     6 NNew      3
 Iteration     4 Dimension    12 NMult     9 NNew      3
 Iteration     5 Dimension    15 NMult    12 NNew      3
 Iteration     6 Dimension    18 NMult    15 NNew      3
 Iteration     7 Dimension    21 NMult    18 NNew      3
 Iteration     8 Dimension    24 NMult    21 NNew      3
 Iteration     9 Dimension    26 NMult    24 NNew      2
 Iteration    10 Dimension    27 NMult    26 NNew      1
 Iteration    11 Dimension    29 NMult    27 NNew      2
 Iteration    12 Dimension    31 NMult    29 NNew      2
 ***********************************************************************
 Excited states from <AA,BB:AA,BB> singles matrix:
 ***********************************************************************
 
 Ground to excited state transition densities written to RWF  633
 Ground to excited state transition electric dipole moments (Au):
       state          X           Y           Z        Dip. S.      Osc.
         1        -0.0000      0.0000     -0.0238      0.0006      0.0000
         2        -0.0444      0.0140     -0.0000      0.0022      0.0002
         3         0.0003     -0.0001     -0.0229      0.0005      0.0001
 Ground to excited state transition velocity dipole moments (Au):
       state          X           Y           Z        Dip. S.      Osc.
         1         0.0000     -0.0000     -0.0756      0.0057      0.0404
         2        -0.0128     -0.0527      0.0000      0.0029      0.0182
         3        -0.0000     -0.0000      0.0174      0.0003      0.0012
 Ground to excited state transition magnetic dipole moments (Au):
       state          X           Y           Z
         1         0.1457      0.4849     -0.0002
         2         0.0003     -0.0004     -0.8256
         3         0.3667      0.7418     -0.0004
 Ground to excited state transition velocity quadrupole moments (Au):
       state          XX          YY          ZZ          XY          XZ          YZ
         1        -0.0000      0.0000     -0.0000      0.0001      0.1622      0.0261
         2         0.1540      0.0197     -0.0013      0.1657     -0.0001      0.0000
         3        -0.0001     -0.0001      0.0001     -0.0000      0.0137     -0.0449
 <0|del|b> * <b|rxdel|0> + <0|del|b> * <b|delr+rdel|0>
 Rotatory Strengths (R) in cgs (10**-40 erg-esu-cm/Gauss)
       state          XX          YY          ZZ    R(velocity)    E-M Angle
         1         0.0020      0.0984     -0.0483      0.0173       90.00
         2         0.0086     -0.0941      0.0714     -0.0047       90.00
         3        -0.0613     -0.0357     -0.0727     -0.0566       90.00
 1/2[<0|r|b>*<b|rxdel|0> + (<0|rxdel|b>*<b|r|0>)*]
 Rotatory Strengths (R) in cgs (10**-40 erg-esu-cm/Gauss)
       state          XX          YY          ZZ     R(length)
         1         0.0003     -0.0036     -0.0034     -0.0022
         2         0.0099      0.0042     -0.0133      0.0002
         3        -0.0703      0.0411     -0.0071     -0.0121
  1/2[<0|del|b>*<b|r|0> + (<0|r|b>*<b|del|0>)*] (Au)
       state          X           Y           Z        Dip. S.   Osc.(frdel)
         1        -0.0000     -0.0000      0.0018     -0.0018     -0.0012
         2         0.0006     -0.0007     -0.0000      0.0002      0.0001
         3        -0.0000      0.0000     -0.0004      0.0004      0.0003

 Excitation energies and oscillator strengths:
 
 Excited State   1:      Singlet-A      2.5651 eV  483.35 nm  f=0.0000  <S**2>=0.000
      22 -> 25         0.68263
      24 -> 25         0.11873
 This state for optimization and/or second-order correction.
 Total Energy, E(CIS/TDA) =  -738.260208182    
 Copying the excited state density for this state as the 1-particle RhoCI density.
 
 Excited State   2:      Singlet-A      2.9258 eV  423.76 nm  f=0.0002  <S**2>=0.000
      21 -> 25         0.65742
      23 -> 25         0.19511
 
 Excited State   3:      Singlet-A      4.6416 eV  267.12 nm  f=0.0001  <S**2>=0.000
      16 -> 25         0.14137
      19 -> 25         0.67327
 SavETr:  write IOETrn=   770 NScale= 10 NData=  16 NLR=1 NState=    3 LETran=      64.
          IDoAtm=11111
          Differentiating once with respect to electric field.
                with respect to dipole field.
          Differentiating once with respect to nuclear coordinates.
 Keep R1 ints in memory in canonical form, NReq=220788045.
          There are     1 degrees of freedom in the 1st order CPHF.  IDoFFX=0 NUNeed=     1.
 LinEq1:  Iter=  0 NonCon=     1 RMS=4.36D-03 Max=1.23D-01 NDo=     1
 AX will form     1 AO Fock derivatives at one time.
 LinEq1:  Iter=  1 NonCon=     1 RMS=2.51D-03 Max=6.12D-02 NDo=     1
 LinEq1:  Iter=  2 NonCon=     1 RMS=5.69D-04 Max=1.04D-02 NDo=     1
 LinEq1:  Iter=  3 NonCon=     1 RMS=2.47D-04 Max=3.69D-03 NDo=     1
 LinEq1:  Iter=  4 NonCon=     1 RMS=1.25D-04 Max=3.28D-03 NDo=     1
 LinEq1:  Iter=  5 NonCon=     1 RMS=4.52D-05 Max=1.09D-03 NDo=     1
 LinEq1:  Iter=  6 NonCon=     1 RMS=1.52D-05 Max=4.22D-04 NDo=     1
 LinEq1:  Iter=  7 NonCon=     1 RMS=7.55D-06 Max=1.65D-04 NDo=     1
 LinEq1:  Iter=  8 NonCon=     1 RMS=2.70D-06 Max=4.41D-05 NDo=     1
 LinEq1:  Iter=  9 NonCon=     1 RMS=8.94D-07 Max=1.83D-05 NDo=     1
 LinEq1:  Iter= 10 NonCon=     1 RMS=2.78D-07 Max=8.54D-06 NDo=     1
 LinEq1:  Iter= 11 NonCon=     1 RMS=1.04D-07 Max=3.64D-06 NDo=     1
 LinEq1:  Iter= 12 NonCon=     1 RMS=2.60D-08 Max=5.47D-07 NDo=     1
 LinEq1:  Iter= 13 NonCon=     1 RMS=6.46D-09 Max=8.85D-08 NDo=     1
 LinEq1:  Iter= 14 NonCon=     1 RMS=1.55D-09 Max=2.34D-08 NDo=     1
 LinEq1:  Iter= 15 NonCon=     1 RMS=3.23D-10 Max=8.46D-09 NDo=     1
 LinEq1:  Iter= 16 NonCon=     1 RMS=8.35D-11 Max=1.80D-09 NDo=     1
 LinEq1:  Iter= 17 NonCon=     0 RMS=2.05D-11 Max=2.79D-10 NDo=     1
 Linear equations converged to 1.000D-10 1.000D-09 after    17 iterations.
 End of Minotr F.D. properties file   721 does not exist.
 End of Minotr F.D. properties file   722 does not exist.
 End of Minotr F.D. properties file   788 does not exist.
 Calling FoFJK, ICntrl=  10005127 FMM=F ISym2X=0 I1Cent= 0 IOpClX= 0 NMat=1 NMatS=1 NMatT=0.
 ***** Axes restored to original set *****
 -------------------------------------------------------------------
 Center     Atomic                   Forces (Hartrees/Bohr)
 Number     Number              X              Y              Z
 -------------------------------------------------------------------
      1        7           0.001034612    0.000298831   -0.000153792
      2        8          -0.000578761    0.000052836    0.000056663
      3        8           0.000145912   -0.000328131    0.000053813
      4        8          -0.000597991    0.000024877    0.000043608
      5       17          -0.000003772   -0.000048413   -0.000000293
 -------------------------------------------------------------------
 Cartesian Forces:  Max     0.001034612 RMS     0.000366849

 GradGradGradGradGradGradGradGradGradGradGradGradGradGradGradGradGradGrad
 Berny optimization.
 Using GEDIIS/GDIIS optimizer.
 FormGI is forming the generalized inverse of G from B-inverse, IUseBI=4.
 Internal  Forces:  Max     0.000658143 RMS     0.000323363
 Search for a local minimum.
 Step number   3 out of a maximum of   21
 All quantities printed in internal units (Hartrees-Bohrs-Radians)
 Mixed Optimization -- En-DIIS/RFO-DIIS
 Swapping is turned off.
 Update second derivatives using D2CorX and points    1    2    3
 DE= -4.66D-06 DEPred=-5.45D-06 R= 8.54D-01
 TightC=F SS=  1.41D+00  RLast= 7.59D-03 DXNew= 5.0454D-01 2.2780D-02
 Trust test= 8.54D-01 RLast= 7.59D-03 DXMaxT set to 3.00D-01
 The second derivative matrix:
                          R1        R2        R3        R4        A1
           R1           1.16451
           R2          -0.00872   1.16000
           R3           0.06977   0.08577   0.60781
           R4          -0.01496  -0.02862   0.04619   0.10888
           A1           0.02395   0.06158  -0.01365   0.02074   0.31155
           A2          -0.02238  -0.06590   0.01583  -0.02035  -0.07579
           A3          -0.00157   0.00432  -0.00218  -0.00039   0.01424
           A4           0.03931   0.04724  -0.01002   0.02979  -0.02362
           D1          -0.00307  -0.00700   0.00067  -0.00236  -0.00663
           D2           0.00192   0.00428  -0.00109   0.00165   0.00327
           D3          -0.00166  -0.00395   0.00097  -0.00144  -0.00342
                          A2        A3        A4        D1        D2
           A2           0.34309
           A3          -0.01731   0.25307
           A4           0.02673  -0.00311   0.23757
           D1           0.00810  -0.00147   0.00216   0.04329
           D2          -0.00407   0.00080  -0.00165  -0.00036   0.02264
           D3           0.00424  -0.00082   0.00153   0.00037  -0.00018
                          D3
           D3           0.02266
 ITU=  1  1  0
     Eigenvalues ---    0.02248   0.03721   0.08879   0.23447   0.25004
     Eigenvalues ---    0.40575   0.59790   1.17202   1.18818
 En-DIIS/RFO-DIIS/Sim-DIIS IScMMF=       -3 using points:     3    2
 RFO step:  Lambda=-3.04872174D-06.
 DidBck=F Rises=F RFO-DIIS coefs:    1.13438   -0.13438
 Iteration  1 RMS(Cart)=  0.00088924 RMS(Int)=  0.00000095
 Iteration  2 RMS(Cart)=  0.00000075 RMS(Int)=  0.00000060
 Variable       Old X    -DE/DX   Delta X   Delta X   Delta X     New X
                                 (Linear)    (Quad)   (Total)
    R1        2.22347   0.00016  -0.00008   0.00001  -0.00007   2.22340
    R2        2.21614   0.00028  -0.00016   0.00002  -0.00015   2.21599
    R3        2.50702   0.00048   0.00022   0.00084   0.00106   2.50808
    R4        3.85592  -0.00002  -0.00076  -0.00098  -0.00174   3.85418
    A1        2.23006   0.00058  -0.00021   0.00190   0.00169   2.23175
    A2        2.06369  -0.00066   0.00031  -0.00210  -0.00179   2.06190
    A3        1.98943   0.00008  -0.00010   0.00020   0.00010   1.98953
    A4        2.05497   0.00018   0.00046   0.00099   0.00144   2.05641
    D1       -3.14094  -0.00007   0.00014  -0.00157  -0.00143   3.14082
    D2        0.00050   0.00003  -0.00004   0.00074   0.00070   0.00120
    D3       -3.14051  -0.00003   0.00008  -0.00067  -0.00058  -3.14109
         Item               Value     Threshold  Converged?
 Maximum Force            0.000658     0.000450     NO 
 RMS     Force            0.000323     0.000300     NO 
 Maximum Displacement     0.001574     0.001800     YES
 RMS     Displacement     0.000889     0.001200     YES
 Predicted change in Energy=-1.524352D-06
 GradGradGradGradGradGradGradGradGradGradGradGradGradGradGradGradGradGrad

                          Input orientation:                          
 ---------------------------------------------------------------------
 Center     Atomic      Atomic             Coordinates (Angstroms)
 Number     Number       Type             X           Y           Z
 ---------------------------------------------------------------------
      1          7           0        1.065903    0.052508   -0.000111
      2          8           0        0.837502    1.206697    0.000190
      3          8           0        2.113733   -0.473955   -0.000177
      4          8           0        0.039317   -0.788702    0.000523
      5         17           0       -1.840251    0.003111   -0.000201
 ---------------------------------------------------------------------
                    Distance matrix (angstroms):
                    1          2          3          4          5
     1  N    0.000000
     2  O    1.176571   0.000000
     3  O    1.172651   2.110297   0.000000
     4  O    1.327220   2.149119   2.098159   0.000000
     5  Cl   2.906574   2.935810   3.982660   2.039545   0.000000
 Stoichiometry    ClNO3
 Framework group  C1[X(ClNO3)]
 Deg. of freedom     9
 Full point group                 C1      NOp   1
 Largest Abelian subgroup         C1      NOp   1
 Largest concise Abelian subgroup C1      NOp   1
                         Standard orientation:                         
 ---------------------------------------------------------------------
 Center     Atomic      Atomic             Coordinates (Angstroms)
 Number     Number       Type             X           Y           Z
 ---------------------------------------------------------------------
      1          7           0        1.063858    0.051671   -0.000113
      2          8           0        0.836982    1.206160    0.000188
      3          8           0        2.110992   -0.476176   -0.000179
      4          8           0        0.036162   -0.788183    0.000521
      5         17           0       -1.842358    0.006112   -0.000203
 ---------------------------------------------------------------------
 Rotational constants (GHZ):          13.7064077           2.3287913           1.9905812
 Standard basis: 6-311++G(3df,3pd) (5D, 7F)
 There are   233 symmetry adapted cartesian basis functions of A   symmetry.
 There are   203 symmetry adapted basis functions of A   symmetry.
   203 basis functions,   307 primitive gaussians,   233 cartesian basis functions
    24 alpha electrons       24 beta electrons
       nuclear repulsion energy       220.2701617644 Hartrees.
 NAtoms=    5 NActive=    5 NUniq=    5 SFac= 1.00D+00 NAtFMM=   60 NAOKFM=F Big=F
 Integral buffers will be    131072 words long.
 Raffenetti 1 integral format.
 Two-electron integral symmetry is turned on.
 One-electron integrals computed using PRISM.
 NBasis=   203 RedAO= T EigKep=  1.37D-04  NBF=   203
 NBsUse=   203 1.00D-06 EigRej= -1.00D+00 NBFU=   203
 Initial guess from the checkpoint file:  "/localscratch/alrebei.28376405.0/Gau-32758.chk"
 B after Tr=     0.000000   -0.000000    0.000000
         Rot=    1.000000   -0.000001   -0.000004    0.000012 Ang=  -0.00 deg.
 Keep R1 ints in memory in canonical form, NReq=220787261.
 LinEq1:  Iter=  0 NonCon=     1 RMS=1.22D-05 Max=2.04D-04 NDo=     1
 AX will form     1 AO Fock derivatives at one time.
 LinEq1:  Iter=  1 NonCon=     1 RMS=3.30D-06 Max=7.73D-05 NDo=     1
 LinEq1:  Iter=  2 NonCon=     1 RMS=1.94D-06 Max=6.98D-05 NDo=     1
 LinEq1:  Iter=  3 NonCon=     1 RMS=6.90D-07 Max=2.32D-05 NDo=     1
 LinEq1:  Iter=  4 NonCon=     1 RMS=3.08D-07 Max=8.84D-06 NDo=     1
 LinEq1:  Iter=  5 NonCon=     1 RMS=1.16D-07 Max=2.67D-06 NDo=     1
 LinEq1:  Iter=  6 NonCon=     1 RMS=5.68D-08 Max=9.41D-07 NDo=     1
 LinEq1:  Iter=  7 NonCon=     1 RMS=2.12D-08 Max=3.10D-07 NDo=     1
 LinEq1:  Iter=  8 NonCon=     1 RMS=9.23D-09 Max=2.27D-07 NDo=     1
 LinEq1:  Iter=  9 NonCon=     1 RMS=4.45D-09 Max=1.29D-07 NDo=     1
 LinEq1:  Iter= 10 NonCon=     0 RMS=1.60D-09 Max=5.06D-08 NDo=     1
 Linear equations converged to 9.269D-09 9.269D-08 after    10 iterations.
     Accept linear search using points  1 and  2.
     Minimum is close to point  2 DX= -1.13D-05 DF=  0.00D+00 DXR=  1.13D-05 DFR=  0.00D+00 which will be used.
 LinEq1:  Iter=  0 NonCon=     1 RMS=6.97D-09 Max=1.56D-07 NDo=     1
 LinEq1:  Iter=  1 NonCon=     1 RMS=4.17D-09 Max=1.63D-07 NDo=     1
 LinEq1:  Iter=  2 NonCon=     1 RMS=1.89D-09 Max=5.81D-08 NDo=     1
 LinEq1:  Iter=  3 NonCon=     1 RMS=1.03D-09 Max=2.77D-08 NDo=     1
 LinEq1:  Iter=  4 NonCon=     1 RMS=4.29D-10 Max=9.72D-09 NDo=     1
 LinEq1:  Iter=  5 NonCon=     1 RMS=1.76D-10 Max=4.02D-09 NDo=     1
 LinEq1:  Iter=  6 NonCon=     1 RMS=5.89D-11 Max=1.23D-09 NDo=     1
 LinEq1:  Iter=  7 NonCon=     1 RMS=2.61D-11 Max=8.00D-10 NDo=     1
 LinEq1:  Iter=  8 NonCon=     1 RMS=1.36D-11 Max=3.24D-10 NDo=     1
 LinEq1:  Iter=  9 NonCon=     1 RMS=5.73D-12 Max=1.47D-10 NDo=     1
 LinEq1:  Iter= 10 NonCon=     0 RMS=1.31D-12 Max=2.56D-11 NDo=     1
 Linear equations converged to 1.416D-11 1.416D-10 after    10 iterations.
 SCF Done:  E(RHF) =  -738.354605994     a.u. after    3 cycles
            Convg  =    0.1686D-08                    23 Fock formations.
              S**2 =  0.0000                  -V/T =  2.0007
 ExpMin= 4.83D-02 ExpMax= 1.06D+05 ExpMxC= 3.62D+03 IAcc=3 IRadAn=         5 AccDes= 0.00D+00
 HarFok:  IExCor=  205 AccDes= 0.00D+00 IRadAn=         5 IDoV=-2 UseB2=F ITyADJ=14
 ICtDFT= 12500011 ScaDFX=  1.000000  1.000000  1.000000  1.000000
 Range of M.O.s used for correlation:    10   203
 NBasis=   203 NAE=    24 NBE=    24 NFC=     9 NFV=     0
 NROrb=    194 NOA=    15 NOB=    15 NVA=   179 NVB=   179

 **** Warning!!: The largest alpha MO coefficient is  0.38102453D+02

 Orbital symmetries:
       Occupied  (A) (A) (A) (A) (A) (A) (A) (A) (A) (A) (A) (A)
                 (A) (A) (A) (A) (A) (A) (A) (A) (A) (A) (A) (A)
       Virtual   (A) (A) (A) (A) (A) (A) (A) (A) (A) (A) (A) (A)
                 (A) (A) (A) (A) (A) (A) (A) (A) (A) (A) (A) (A)
                 (A) (A) (A) (A) (A) (A) (A) (A) (A) (A) (A) (A)
                 (A) (A) (A) (A) (A) (A) (A) (A) (A) (A) (A) (A)
                 (A) (A) (A) (A) (A) (A) (A) (A) (A) (A) (A) (A)
                 (A) (A) (A) (A) (A) (A) (A) (A) (A) (A) (A) (A)
                 (A) (A) (A) (A) (A) (A) (A) (A) (A) (A) (A) (A)
                 (A) (A) (A) (A) (A) (A) (A) (A) (A) (A) (A) (A)
                 (A) (A) (A) (A) (A) (A) (A) (A) (A) (A) (A) (A)
                 (A) (A) (A) (A) (A) (A) (A) (A) (A) (A) (A) (A)
                 (A) (A) (A) (A) (A) (A) (A) (A) (A) (A) (A) (A)
                 (A) (A) (A) (A) (A) (A) (A) (A) (A) (A) (A) (A)
                 (A) (A) (A) (A) (A) (A) (A) (A) (A) (A) (A) (A)
                 (A) (A) (A) (A) (A) (A) (A) (A) (A) (A) (A) (A)
                 (A) (A) (A) (A) (A) (A) (A) (A) (A) (A) (A)
 Generating guess from densities on rwf.
 Convergence on wavefunction:    0.000001000000000
 Iteration     1 Dimension     3 NMult     0 NNew      3
 CISAX will form     3 AO SS matrices at one time.
 Iteration     2 Dimension     6 NMult     3 NNew      3
 Iteration     3 Dimension     9 NMult     6 NNew      3
 Iteration     4 Dimension    12 NMult     9 NNew      3
 Iteration     5 Dimension    15 NMult    12 NNew      3
 Iteration     6 Dimension    18 NMult    15 NNew      3
 Iteration     7 Dimension    21 NMult    18 NNew      3
 Iteration     8 Dimension    24 NMult    21 NNew      3
 Iteration     9 Dimension    25 NMult    24 NNew      1
 Iteration    10 Dimension    26 NMult    25 NNew      1
 ***********************************************************************
 Excited states from <AA,BB:AA,BB> singles matrix:
 ***********************************************************************
 
 Ground to excited state transition densities written to RWF  633
 Ground to excited state transition electric dipole moments (Au):
       state          X           Y           Z        Dip. S.      Osc.
         1         0.0000     -0.0000     -0.0238      0.0006      0.0000
         2        -0.0448      0.0141     -0.0000      0.0022      0.0002
         3         0.0004     -0.0001     -0.0229      0.0005      0.0001
 Ground to excited state transition velocity dipole moments (Au):
       state          X           Y           Z        Dip. S.      Osc.
         1         0.0000     -0.0001     -0.0757      0.0057      0.0405
         2        -0.0128     -0.0527      0.0000      0.0029      0.0182
         3        -0.0000     -0.0000      0.0174      0.0003      0.0012
 Ground to excited state transition magnetic dipole moments (Au):
       state          X           Y           Z
         1         0.1445      0.4845     -0.0005
         2         0.0001     -0.0007     -0.8247
         3         0.3667      0.7417     -0.0010
 Ground to excited state transition velocity quadrupole moments (Au):
       state          XX          YY          ZZ          XY          XZ          YZ
         1         0.0001      0.0001     -0.0000      0.0002      0.1623      0.0261
         2         0.1539      0.0197     -0.0013      0.1660     -0.0002      0.0000
         3        -0.0000     -0.0001      0.0001     -0.0001      0.0139     -0.0450
 <0|del|b> * <b|rxdel|0> + <0|del|b> * <b|delr+rdel|0>
 Rotatory Strengths (R) in cgs (10**-40 erg-esu-cm/Gauss)
       state          XX          YY          ZZ    R(velocity)    E-M Angle
         1         0.0200      0.2000     -0.1457      0.0248       90.00
         2        -0.0116     -0.1660      0.1477     -0.0099       90.00
         3        -0.0707     -0.0626     -0.0675     -0.0669       90.00
 1/2[<0|r|b>*<b|rxdel|0> + (<0|rxdel|b>*<b|r|0>)*]
 Rotatory Strengths (R) in cgs (10**-40 erg-esu-cm/Gauss)
       state          XX          YY          ZZ     R(length)
         1        -0.0024      0.0006     -0.0085     -0.0034
         2         0.0027      0.0071     -0.0012      0.0029
         3        -0.1023      0.0779     -0.0168     -0.0137
  1/2[<0|del|b>*<b|r|0> + (<0|r|b>*<b|del|0>)*] (Au)
       state          X           Y           Z        Dip. S.   Osc.(frdel)
         1         0.0000      0.0000      0.0018     -0.0018     -0.0012
         2         0.0006     -0.0007     -0.0000      0.0002      0.0001
         3        -0.0000      0.0000     -0.0004      0.0004      0.0003

 Excitation energies and oscillator strengths:
 
 Excited State   1:      Singlet-A      2.5687 eV  482.68 nm  f=0.0000  <S**2>=0.000
      22 -> 25         0.68257
      24 -> 25         0.11882
 This state for optimization and/or second-order correction.
 Total Energy, E(CIS/TDA) =  -738.260209745    
 Copying the excited state density for this state as the 1-particle RhoCI density.
 
 Excited State   2:      Singlet-A      2.9310 eV  423.01 nm  f=0.0002  <S**2>=0.000
      21 -> 25         0.65712
      23 -> 25         0.19498
 
[...]
 Full mass-weighted force constant matrix:
 Low frequencies ---  -60.2425  -10.8516   -6.9309   -5.9494   -0.0020    0.0007
 Low frequencies ---    0.0018  185.5147  387.8577
 ******    1 imaginary frequencies (negative Signs) ****** 
 Diagonal vibrational polarizability:
       28.4973777       4.7819248       2.8081579
 Harmonic frequencies (cm**-1), IR intensities (KM/Mole), Raman scattering
 activities (A**4/AMU), depolarization ratios for plane and unpolarized
 incident light, reduced masses (AMU), force constants (mDyne/A),
 and normal coordinates:
                      1                      2                      3
                      A                      A                      A
 Frequencies --    -60.2337               185.5147               387.8576
 Red. masses --     16.9309                19.6071                20.8601
 Frc consts  --      0.0362                 0.3976                 1.8489
 IR Inten    --      0.2800                 0.9796                34.5969
  Atom  AN      X      Y      Z        X      Y      Z        X      Y      Z
     1   7    -0.00   0.00   0.08     0.22   0.15  -0.00    -0.27   0.18  -0.00
     2   8     0.00   0.00   0.26     0.64   0.22   0.00     0.07   0.25   0.00
     3   8    -0.00  -0.00  -0.58     0.03  -0.26   0.00    -0.53  -0.26   0.00
     4   8    -0.00   0.00   0.74    -0.05   0.46  -0.00    -0.35   0.29  -0.00
     5  17     0.00  -0.00  -0.22    -0.37  -0.25   0.00     0.48  -0.20   0.00
                      4                      5                      6
                      A                      A                      A
 Frequencies --    766.9384               804.3330               918.6161
 Red. masses --     15.9601                15.9956                14.4094
 Frc consts  --      5.5310                 6.0971                 7.1642
 IR Inten    --      0.1166                 1.4503                22.9375
  Atom  AN      X      Y      Z        X      Y      Z        X      Y      Z
     1   7     0.19  -0.18  -0.00     0.09   0.15   0.00     0.00  -0.00   0.89
     2   8    -0.38  -0.37   0.00    -0.43   0.12   0.00    -0.00  -0.00  -0.28
     3   8     0.37  -0.04   0.00    -0.19  -0.52   0.00     0.00   0.00  -0.28
     4   8    -0.29   0.65  -0.00     0.65   0.20  -0.00    -0.00   0.00  -0.21
     5  17     0.06  -0.04   0.00    -0.05   0.03  -0.00     0.00  -0.00  -0.00
                      7                      8                      9
                      A                      A                      A
 Frequencies --   1076.3992              1511.6090              1817.2201
 Red. masses --     15.2453                15.1231                14.5743
 Frc consts  --     10.4071                20.3597                28.3564
 IR Inten    --    549.5707               771.3267               541.0927
  Atom  AN      X      Y      Z        X      Y      Z        X      Y      Z
     1   7     0.49   0.37  -0.00    -0.48  -0.45  -0.00    -0.55   0.64   0.00
     2   8    -0.25   0.32  -0.00    -0.05   0.56   0.00     0.09  -0.32  -0.00
     3   8     0.25  -0.31  -0.00     0.46  -0.18  -0.00     0.36  -0.20  -0.00
     4   8    -0.43  -0.35   0.00    -0.00   0.02  -0.00     0.02  -0.04   0.00
     5  17     0.00   0.00   0.00     0.01  -0.00  -0.00     0.00   0.00  -0.00

 -------------------
 - Thermochemistry -
 -------------------
 Temperature   298.150 Kelvin.  Pressure   1.00000 Atm.
 Atom     1 has atomic number  7 and mass  14.00307
 Atom     2 has atomic number  8 and mass  15.99491
 Atom     3 has atomic number  8 and mass  15.99491
 Atom     4 has atomic number  8 and mass  15.99491
 Atom     5 has atomic number 17 and mass  34.96885
 Molecular mass:    96.95667 amu.
 Principal axes and moments of inertia in atomic units:
                           1         2         3
     Eigenvalues --   131.67135 774.96905 906.64035
           X            1.00000   0.00006  -0.00004
           Y           -0.00006   1.00000   0.00005
           Z            0.00004  -0.00005   1.00000
 This molecule is an asymmetric top.
 Rotational symmetry number  1.
 Rotational temperatures (Kelvin)      0.65780     0.11176     0.09553
 Rotational constants (GHZ):          13.70641     2.32879     1.99058
    1 imaginary frequencies ignored.
 Zero-point vibrational energy      44671.5 (Joules/Mol)
                                   10.67674 (Kcal/Mol)
 Warning -- explicit consideration of   2 degrees of freedom as
           vibrations may cause significant error
 Vibrational temperatures:    266.91   558.04  1103.45  1157.26  1321.68
          (Kelvin)           1548.70  2174.87  2614.57
 
 Zero-point correction=                           0.017014 (Hartree/Particle)
 Thermal correction to Energy=                    0.021001
 Thermal correction to Enthalpy=                  0.021946
 Thermal correction to Gibbs Free Energy=        -0.011117
 Sum of electronic and zero-point Energies=           -738.243195
 Sum of electronic and thermal Energies=              -738.239208
 Sum of electronic and thermal Enthalpies=            -738.238264
 Sum of electronic and thermal Free Energies=         -738.271327
 
                     E (Thermal)             CV                S
                      KCal/Mol        Cal/Mol-Kelvin    Cal/Mol-Kelvin
 Total                   13.179             11.539             69.587
 Electronic               0.000              0.000              0.000
 Translational            0.889              2.981             39.626
 Rotational               0.889              2.981             26.028
 Vibrational             11.401              5.578              3.933
 Vibration     1          0.632              1.860              2.272
 Vibration     2          0.756              1.496              1.008
                       Q            Log10(Q)             Ln(Q)
 Total Bot       0.129915D+06          5.113660         11.774637
 Total V=0       0.870492D+13         12.939765         29.794910
 Vib (Bot)       0.317972D-07         -7.497612        -17.263889
 Vib (Bot)    1  0.108058D+01          0.033656          0.077496
 Vib (Bot)    2  0.463587D+00         -0.333869         -0.768762
 Vib (V=0)       0.213056D+01          0.328493          0.756384
 Vib (V=0)    1  0.169065D+01          0.228054          0.525113
 Vib (V=0)    2  0.118184D+01          0.072561          0.167077
 Electronic      0.100000D+01          0.000000          0.000000
 Translational   0.375250D+08          7.574320         17.440517
 Rotational      0.108881D+06          5.036951         11.598008
 ***** Axes restored to original set *****
 -------------------------------------------------------------------
 Center     Atomic                   Forces (Hartrees/Bohr)
 Number     Number              X              Y              Z
 -------------------------------------------------------------------
      1        7           0.000184156    0.000136016    0.000167643
      2        8          -0.000024952    0.000096328   -0.000059656
      3        8           0.000096902   -0.000053500   -0.000061818
      4        8          -0.000150634   -0.000206969   -0.000043427
      5       17          -0.000105472    0.000028125   -0.000002742
 -------------------------------------------------------------------
 Cartesian Forces:  Max     0.000206969 RMS     0.000112365
 -------------------------------------------------------------------
 Center     Atomic                Nonadiabatic Coup. (Bohr^-1)
 Number     Number              X              Y              Z
 -------------------------------------------------------------------
      1        7          -0.000047244    0.000042621    0.107655489
      2        8          -0.000015931   -0.000000023   -0.003091515
      3        8          -0.000009408   -0.000037926   -0.033254465
      4        8           0.000072374    0.000178270    0.118540955
      5       17          -0.000012240   -0.000120537   -0.114170045
 -------------------------------------------------------------------
 Cartesian Nonad. Coup.:  Max     0.118540955 RMS     0.051505298
 FormGI is forming the generalized inverse of G from B-inverse, IUseBI=4.

 GradGradGradGradGradGradGradGradGradGradGradGradGradGradGradGradGradGrad
 Berny optimization.
 Internal  Forces:  Max     0.000311370 RMS     0.000113870
 Search for a local minimum.
 Step number   1 out of a maximum of    2
 All quantities printed in internal units (Hartrees-Bohrs-Radians)
 Second derivative matrix not updated -- analytic derivatives used.
 The second derivative matrix:
                          R1        R2        R3        R4        A1
           R1           0.84770
           R2           0.15901   0.88102
           R3           0.10040   0.09941   0.39449
           R4          -0.00376  -0.00520   0.02764   0.10975
           A1           0.04736   0.04030  -0.08720  -0.00009   0.27495
           A2           0.02774  -0.06723   0.04429  -0.00072  -0.14743
           A3          -0.07510   0.02693   0.04291   0.00082  -0.12751
           A4           0.00689   0.00055   0.02776   0.02472  -0.02759
           D1           0.00004   0.00003   0.00007   0.00000  -0.00003
           D2          -0.00002  -0.00004   0.00001   0.00001  -0.00010
           D3           0.00003   0.00003   0.00001   0.00001   0.00008
                          A2        A3        A4        D1        D2
           A2           0.28181
           A3          -0.13438   0.26189
           A4           0.03939  -0.01180   0.17455
           D1           0.00004   0.00004   0.00001   0.07345
           D2           0.00010  -0.00002   0.00004  -0.03126   0.01193
           D3          -0.00005  -0.00000   0.00002   0.03450  -0.01605
                          D3
           D3           0.01484
 ITU=  0
     Eigenvalues ---   -0.00273   0.09822   0.10295   0.17131   0.26576
     Eigenvalues ---    0.38036   0.51707   0.73473   1.05872
 Eigenvalue     1 is  -2.73D-03 should be greater than     0.000000 Eigenvector:
                          D2        D3        D1        A4        A2
   1                    0.71659   0.69716  -0.02171  -0.00021  -0.00006
                          R4        A3        A1        R2        R3
   1                   -0.00004   0.00004   0.00001   0.00000   0.00000
 Angle between quadratic step and forces=  52.68 degrees.
 Linear search not attempted -- first point.
 Iteration  1 RMS(Cart)=  0.00062033 RMS(Int)=  0.00000021
 Iteration  2 RMS(Cart)=  0.00000019 RMS(Int)=  0.00000004
 Variable       Old X    -DE/DX   Delta X   Delta X   Delta X     New X
                                 (Linear)    (Quad)   (Total)
    R1        2.22340   0.00010   0.00000   0.00001   0.00001   2.22340
    R2        2.21599   0.00011   0.00000   0.00003   0.00003   2.21602
    R3        2.50808   0.00031   0.00000   0.00078   0.00078   2.50886
    R4        3.85418   0.00011   0.00000   0.00076   0.00076   3.85494
    A1        2.23175   0.00001   0.00000   0.00019   0.00019   2.23194
    A2        2.06190  -0.00001   0.00000  -0.00010  -0.00010   2.06181
    A3        1.98953  -0.00000   0.00000  -0.00009  -0.00009   1.98944
    A4        2.05641   0.00006   0.00000   0.00014   0.00014   2.05655
    D1        3.14082   0.00008   0.00000   0.00073   0.00073   3.14155
    D2        0.00120  -0.00003   0.00000   0.00052   0.00052   0.00172
    D3       -3.14109   0.00004   0.00000   0.00118   0.00118  -3.13991
         Item               Value     Threshold  Converged?
 Maximum Force            0.000311     0.000450     YES
 RMS     Force            0.000114     0.000300     YES
 Maximum Displacement     0.001036     0.001800     YES
 RMS     Displacement     0.000620     0.001200     YES
 Predicted change in Energy=-2.163389D-07
 Optimization completed.
    -- Stationary point found.
                           ----------------------------
                           !   Optimized Parameters   !
                           ! (Angstroms and Degrees)  !
 --------------------------                            --------------------------
 ! Name  Definition              Value          Derivative Info.                !
 --------------------------------------------------------------------------------
 ! R1    R(1,2)                  1.1766         -DE/DX =    0.0001              !
 ! R2    R(1,3)                  1.1727         -DE/DX =    0.0001              !
 ! R3    R(1,4)                  1.3272         -DE/DX =    0.0003              !
 ! R4    R(4,5)                  2.0395         -DE/DX =    0.0001              !
 ! A1    A(2,1,3)              127.87           -DE/DX =    0.0                 !
 ! A2    A(2,1,4)              118.1384         -DE/DX =    0.0                 !
 ! A3    A(3,1,4)              113.9916         -DE/DX =    0.0                 !
 ! A4    A(1,4,5)              117.8235         -DE/DX =    0.0001              !
 ! D1    D(2,1,3,4)            179.9555         -DE/DX =    0.0001              !
 ! D2    D(2,1,4,5)              0.0687         -DE/DX =    0.0                 !
 ! D3    D(3,1,4,5)           -179.9712         -DE/DX =    0.0                 !
 --------------------------------------------------------------------------------
 GradGradGradGradGradGradGradGradGradGradGradGradGradGradGradGradGradGrad

 -------------------------------------------------------------------
 Center     Atomic                Nonadiabatic Coup. (Bohr^-1)
 Number     Number              X              Y              Z
 -------------------------------------------------------------------
      1        7          -0.000047244    0.000042621    0.107655489
      2        8          -0.000015931   -0.000000023   -0.003091515
      3        8          -0.000009408   -0.000037926   -0.033254465
      4        8           0.000072374    0.000178270    0.118540955
      5       17          -0.000012240   -0.000120537   -0.114170045
 -------------------------------------------------------------------
 Cartesian Nonad. Coup.:  Max     0.118540955 RMS     0.051505298

 ----------------------------------------------------------------------

 Electric dipole moment (input orientation):
 (Debye = 10**-18 statcoulomb cm , SI units = C m)
                  (au)            (Debye)         (10**-30 SI)
   Tot        0.156634D+01      0.398124D+01      0.132800D+02
   x         -0.156522D+01     -0.397839D+01     -0.132705D+02
   y         -0.592574D-01     -0.150617D+00     -0.502405D+00
   z         -0.377114D-03     -0.958528D-03     -0.319731D-02

 Dipole polarizability, Alpha (input orientation).
 (esu units = cm**3 , SI units = C**2 m**2 J**-1)
 Alpha(0;0):
               (au)            (10**-24 esu)      (10**-40 SI)
   iso        0.529674D+02      0.784897D+01      0.873315D+01
   aniso      0.717579D+02      0.106334D+02      0.118313D+02
   xx         0.982356D+02      0.145570D+02      0.161969D+02
   yx        -0.117920D+02     -0.174740D+01     -0.194424D+01
   yy         0.366927D+02      0.543730D+01      0.604981D+01
   zx         0.110045D-01      0.163069D-02      0.181439D-02
   zy        -0.165635D-02     -0.245445D-03     -0.273094D-03
   zz         0.239740D+02      0.355258D+01      0.395277D+01

 ----------------------------------------------------------------------

 Dipole orientation:
     7         -0.00156262          0.02290923         -2.01657706
     8         -0.08398434          2.21722945         -1.66778550
     8          0.03828975         -1.04541764         -3.95763352
     8          0.05743443         -1.49106843         -0.01785967
    17         -0.00474273          0.13735693          3.47485770

 Electric dipole moment (dipole orientation):
 (Debye = 10**-18 statcoulomb cm , SI units = C m)
                  (au)            (Debye)         (10**-30 SI)
   Tot        0.156634D+01      0.398124D+01      0.132800D+02
   x          0.000000D+00      0.000000D+00      0.000000D+00
   y          0.000000D+00      0.000000D+00      0.000000D+00
   z          0.156634D+01      0.398124D+01      0.132800D+02

 Dipole polarizability, Alpha (dipole orientation).
 (esu units = cm**3 , SI units = C**2 m**2 J**-1)
 Alpha(0;0):
               (au)            (10**-24 esu)      (10**-40 SI)
   iso        0.529674D+02      0.784897D+01      0.873315D+01
   aniso      0.717579D+02      0.106334D+02      0.118313D+02
   xx         0.239935D+02      0.355547D+01      0.395599D+01
   yx        -0.516549D+00     -0.765446D-01     -0.851674D-01
   yy         0.376529D+02      0.557958D+01      0.620812D+01
   zx        -0.526151D+00     -0.779675D-01     -0.867505D-01
   zy         0.140750D+02      0.208571D+01      0.232066D+01
   zz         0.972560D+02      0.144118D+02      0.160353D+02

 ----------------------------------------------------------------------
 1\1\GINC-GRA40\Freq\RCIS-FC\6-311++G(3df,3pd)\Cl1N1O3\ALREBEI\24-Feb-2
 020\0\\#N Geom=AllCheck Guess=TCheck SCRF=Check GenChk RCIS(FC,Read)/6
 -311++G(3df,3pd) Freq\\Title Card Required\\0,1\N,1.0659032602,0.05250
 82349,-0.0001107503\O,0.8375021457,1.2066967239,0.0001899828\O,2.11373
 32872,-0.4739547502,-0.0001771735\O,0.0393169226,-0.7887015844,0.00052
 2758\Cl,-1.8402506157,0.0031113758,-0.000200817\\Version=ES64L-G16RevA
 .03\State=1-A\HF=-738.354606\RMSD=1.819e-11\RMSF=1.124e-04\ZeroPoint=0
 .0170145\Thermal=0.0210015\Dipole=-1.5652173,-0.0592574,-0.0003771\Dip
 oleDeriv=3.3526462,-0.6335363,-0.0003534,1.6064777,2.0198206,0.0006016
 ,-0.0015843,0.0002821,0.4417652,-0.7037678,0.1108636,0.0000683,-0.3747
 919,-1.328084,-0.0002083,0.0002323,-0.0003009,-0.2673997,-1.7801843,0.
 6887502,0.0002712,-0.1168666,-0.6804675,-0.0002443,0.0003298,-0.000060
 1,-0.2687753,-1.5779961,-0.0921211,-0.0001125,-0.9333791,-0.3217944,-0
 .0001107,0.0009049,0.0000859,-0.1773554,0.709302,-0.0739564,0.0001263,
 -0.18144,0.3105253,-0.0000383,0.0001172,-0.000007,0.2717652\Polar=98.2
 356322,-11.792015,36.6927216,0.0110045,-0.0016563,23.9739714\PG=C01 [X
 (Cl1N1O3)]\NImag=1\\0.93108248,-0.25375154,1.00701108,-0.00008665,0.00
 010131,0.34591476,-0.17968121,0.08702537,0.00002107,0.20104555,0.07592
 484,-0.61058755,-0.00008804,-0.13679607,0.81888302,0.00003266,-0.00013
 212,-0.12513284,-0.00005641,0.00012289,0.04506893,-0.57252462,0.200765
 50,0.00006218,-0.02801756,0.11400337,0.00000828,0.73109789,0.20896928,
 -0.24219104,-0.00003263,0.11866776,-0.09962861,-0.00002506,-0.29236503
 ,0.31113170,0.00001575,-0.00000932,-0.12529503,0.00002711,-0.00004497,
 0.04563961,-0.00011290,0.00004197,0.04473697,-0.14727560,-0.02834630,-
 0.00000128,0.00991152,-0.05531065,0.00001772,-0.13429397,-0.03216582,0
 .00006679,0.34010435,-0.03861617,-0.16766064,0.00003095,-0.06232668,-0
 .10419918,0.00003478,-0.01978936,0.03110168,0.00001168,0.08352250,0.27
 121062,0.00004210,0.00005255,-0.09304797,0.00001076,0.00001031,0.03326
 664,0.00003746,0.00001597,0.03456895,-0.00004913,-0.00010783,0.0237964
 5,-0.03160104,-0.00569302,0.00000468,-0.00325830,0.00217851,-0.0000022
 4,0.00373825,-0.00310619,0.00000324,-0.06844630,0.03720971,-0.00004119
 ,0.09956739,0.00747360,0.01342814,-0.00001159,-0.00657038,-0.00446768,
 -0.00000048,-0.00261448,-0.00041374,0.00000065,0.03230027,-0.03045249,
 0.00002900,-0.03058901,0.02190576,-0.00000386,-0.00001241,-0.00243892,
 -0.00000253,-0.00000018,0.00115766,0.00000497,-0.00000026,0.00034950,-
 0.00003410,0.00003043,0.00141594,0.00003551,-0.00001758,-0.00048417\\-
 0.00018416,-0.00013602,-0.00016764,0.00002495,-0.00009633,0.00005966,-
 0.00009690,0.00005350,0.00006182,0.00015063,0.00020697,0.00004343,0.00
 010547,-0.00002812,0.00000274\\\@


 IF YOU DON'T HAVE THE LAW - ARGUE THE FACTS.
 IF YOU DON'T HAVE THE FACTS - ARGUE THE LAW.
 IF YOU DON'T HAVE EITHER - POUND THE TABLE.
 Job cpu time:       0 days  0 hours 12 minutes 58.5 seconds.
 Elapsed time:       0 days  0 hours  6 minutes 37.0 seconds.
 File lengths (MBytes):  RWF=    142 Int=      0 D2E=      0 Chk=      8 Scr=      1
 Normal termination of Gaussian 16 at Mon Feb 24 02:25:50 2020.
