 Entering Gaussian System, Link 0=g16
 Initial command:
 /opt/software/gaussian/g16.a03/l1.exe "/localscratch/alrebei.28376409.0/Gau-27863.inp" -scrdir="/localscratch/alrebei.28376409.0/"
 Entering Link 1 = /opt/software/gaussian/g16.a03/l1.exe PID=     27864.
  
 Copyright (c) 1988,1990,1992,1993,1995,1998,2003,2009,2016,
            Gaussian, Inc.  All Rights Reserved.
  
 This is part of the Gaussian(R) 16 program.  It is based on
 the Gaussian(R) 09 system (copyright 2009, Gaussian, Inc.),
 the Gaussian(R) 03 system (copyright 2003, Gaussian, Inc.),
 the Gaussian(R) 98 system (copyright 1998, Gaussian, Inc.),
 the Gaussian(R) 94 system (copyright 1995, Gaussian, Inc.),
 the Gaussian 92(TM) system (copyright 1992, Gaussian, Inc.),
 the Gaussian 90(TM) system (copyright 1990, Gaussian, Inc.),
 the Gaussian 88(TM) system (copyright 1988, Gaussian, Inc.),
 the Gaussian 86(TM) system (copyright 1986, Carnegie Mellon
 University), and the Gaussian 82(TM) system (copyright 1983,
 Carnegie Mellon University). Gaussian is a federally registered
 trademark of Gaussian, Inc.
  
 This software contains proprietary and confidential information,
 including trade secrets, belonging to Gaussian, Inc.
  
 This software is provided under written license and may be
 used, copied, transmitted, or stored only in accord with that
 written license.
  
 The following legend is applicable only to US Government
 contracts under FAR:
  
                    RESTRICTED RIGHTS LEGEND
  
 Use, reproduction and disclosure by the US Government is
 subject to restrictions as set forth in subparagraphs (a)
 and (c) of the Commercial Computer Software - Restricted
 Rights clause in FAR 52.227-19.
  
 Gaussian, Inc.
 340 Quinnipiac St., Bldg. 40, Wallingford CT 06492
  
  
 ---------------------------------------------------------------
 Warning -- This program may not be used in any manner that
 competes with the business of Gaussian, Inc. or will provide
 assistance to any competitor of Gaussian, Inc.  The licensee
 of this program is prohibited from giving any competitor of
 Gaussian, Inc. access to this program.  By using this program,
 the user acknowledges that Gaussian, Inc. is engaged in the
 business of creating and licensing software in the field of
 computational chemistry and represents and warrants to the
 licensee that it is not a competitor of Gaussian, Inc. and that
 it will not use this program in any manner prohibited above.
 ---------------------------------------------------------------
  

 Cite this work as:
 Gaussian 16, Revision A.03,
 M. J. Frisch, G. W. Trucks, H. B. Schlegel, G. E. Scuseria, 
 M. A. Robb, J. R. Cheeseman, G. Scalmani, V. Barone, 
 G. A. Petersson, H. Nakatsuji, X. Li, M. Caricato, A. V. Marenich, 
 J. Bloino, B. G. Janesko, R. Gomperts, B. Mennucci, H. P. Hratchian, 
 J. V. Ortiz, A. F. Izmaylov, J. L. Sonnenberg, D. Williams-Young, 
 F. Ding, F. Lipparini, F. Egidi, J. Goings, B. Peng, A. Petrone, 
 T. Henderson, D. Ranasinghe, V. G. Zakrzewski, J. Gao, N. Rega, 
 G. Zheng, W. Liang, M. Hada, M. Ehara, K. Toyota, R. Fukuda, 
 J. Hasegawa, M. Ishida, T. Nakajima, Y. Honda, O. Kitao, H. Nakai, 
 T. Vreven, K. Throssell, J. A. Montgomery, Jr., J. E. Peralta, 
 F. Ogliaro, M. J. Bearpark, J. J. Heyd, E. N. Brothers, K. N. Kudin, 
 V. N. Staroverov, T. A. Keith, R. Kobayashi, J. Normand, 
 K. Raghavachari, A. P. Rendell, J. C. Burant, S. S. Iyengar, 
 J. Tomasi, M. Cossi, J. M. Millam, M. Klene, C. Adamo, R. Cammi, 
 J. W. Ochterski, R. L. Martin, K. Morokuma, O. Farkas, 
 J. B. Foresman, and D. J. Fox, Gaussian, Inc., Wallingford CT, 2016.
 
 ******************************************
 Gaussian 16:  ES64L-G16RevA.03 25-Dec-2016
                24-Feb-2020 
 ******************************************
 %nprocshared=2
 Will use up to    2 processors via shared memory.
 %mem=2GB
 ---------------------------------------
 # opt freq cis/6-311++g(3df,3pd) scf=qc
 ---------------------------------------
 1/18=20,19=15,38=1/1,3;
 2/9=110,12=2,17=6,18=5,40=1/2;
 3/5=4,6=6,7=1616,11=9,25=1,30=1,71=1/1,2,3,8;
 4//1;
 5/5=2,8=3,38=5/8;
 8/6=1,10=2/1;
 9/15=2,42=1/14;
 10/5=4/2;
 6/7=2,8=2,9=2,10=2/1;
 7/12=6,13=5/1,2,3,16;
 1/18=20,19=15/3(2);
 2/9=110/2;
 99//99;
 2/9=110/2;
 3/5=4,6=6,7=1616,11=9,25=1,30=1,71=1/1,2,3,8;
 4/5=5,16=3,69=1/1;
 5/5=2,8=3,38=5/8;
 8/6=1,10=2/1;
 9/15=2,42=1,49=4/14;
 10/5=4/2;
 7/12=6,13=5/1,2,3,16;
 1/18=20,19=15/3(-8);
 2/9=110/2;
 6/7=2,8=2,9=2,10=2/1;
 99//99;
 -------------------
 Title Card Required
 -------------------
 Symbolic Z-matrix:
 Charge =  0 Multiplicity = 1
 N                    -0.8296    0.00001  -0.13025 
 O                    -1.53558   1.01668  -0.11228 
 O                    -1.53712  -1.01558  -0.11338 
 O                     0.23183  -0.00136   0.69906 
 Cl                    1.67848   0.00012  -0.16914 
 

 GradGradGradGradGradGradGradGradGradGradGradGradGradGradGradGradGradGrad
 Berny optimization.
 Initialization pass.
                           ----------------------------
                           !    Initial Parameters    !
                           ! (Angstroms and Degrees)  !
 --------------------------                            --------------------------
 ! Name  Definition              Value          Derivative Info.                !
 --------------------------------------------------------------------------------
 ! R1    R(1,2)                  1.2379         estimate D2E/DX2                !
 ! R2    R(1,3)                  1.2379         estimate D2E/DX2                !
 ! R3    R(1,4)                  1.347          estimate D2E/DX2                !
 ! R4    R(4,5)                  1.6872         estimate D2E/DX2                !
 ! A1    A(2,1,3)              110.3441         estimate D2E/DX2                !
 ! A2    A(2,1,4)              116.1868         estimate D2E/DX2                !
 ! A3    A(3,1,4)              116.1784         estimate D2E/DX2                !
 ! A4    A(1,4,5)              111.0289         estimate D2E/DX2                !
 ! D1    D(2,1,3,4)           -134.9695         estimate D2E/DX2                !
 ! D2    D(2,1,4,5)           -113.7549         estimate D2E/DX2                !
 ! D3    D(3,1,4,5)            113.9106         estimate D2E/DX2                !
 --------------------------------------------------------------------------------
 Trust Radius=3.00D-01 FncErr=1.00D-07 GrdErr=1.00D-07 EigMax=2.50D+02 EigMin=1.00D-04
 Number of steps in this run=     21 maximum allowed number of steps=    100.
 GradGradGradGradGradGradGradGradGradGradGradGradGradGradGradGradGradGrad

                          Input orientation:                          
 ---------------------------------------------------------------------
 Center     Atomic      Atomic             Coordinates (Angstroms)
 Number     Number       Type             X           Y           Z
 ---------------------------------------------------------------------
      1          7           0       -0.829600    0.000007   -0.130253
      2          8           0       -1.535581    1.016676   -0.112277
      3          8           0       -1.537117   -1.015583   -0.113378
      4          8           0        0.231825   -0.001360    0.699058
      5         17           0        1.678481    0.000123   -0.169144
 ---------------------------------------------------------------------
                    Distance matrix (angstroms):
                    1          2          3          4          5
     1  N    0.000000
     2  O    1.237881   0.000000
     3  O    1.237856   2.032260   0.000000
     4  O    1.346990   2.195082   2.194962   0.000000
     5  Cl   2.508383   3.371470   3.372661   1.687184   0.000000
 Stoichiometry    ClNO3
 Framework group  C1[X(ClNO3)]
 Deg. of freedom     9
 Full point group                 C1      NOp   1
 Largest Abelian subgroup         C1      NOp   1
 Largest concise Abelian subgroup C1      NOp   1
                         Standard orientation:                         
 ---------------------------------------------------------------------
 Center     Atomic      Atomic             Coordinates (Angstroms)
 Number     Number       Type             X           Y           Z
 ---------------------------------------------------------------------
      1          7           0       -0.829600    0.000007   -0.130253
      2          8           0       -1.535581    1.016676   -0.112277
      3          8           0       -1.537117   -1.015583   -0.113378
      4          8           0        0.231825   -0.001360    0.699058
      5         17           0        1.678481    0.000123   -0.169144
 ---------------------------------------------------------------------
 Rotational constants (GHZ):          11.8937542           2.6056340           2.3233100
 Standard basis: 6-311++G(3df,3pd) (5D, 7F)
 There are   233 symmetry adapted cartesian basis functions of A   symmetry.
 There are   203 symmetry adapted basis functions of A   symmetry.
   203 basis functions,   307 primitive gaussians,   233 cartesian basis functions
    24 alpha electrons       24 beta electrons
       nuclear repulsion energy       227.8475403806 Hartrees.
 NAtoms=    5 NActive=    5 NUniq=    5 SFac= 1.00D+00 NAtFMM=   60 NAOKFM=F Big=F
 Integral buffers will be    131072 words long.
 Raffenetti 1 integral format.
 Two-electron integral symmetry is turned on.
 One-electron integrals computed using PRISM.
 NBasis=   203 RedAO= T EigKep=  2.14D-04  NBF=   203
 NBsUse=   203 1.00D-06 EigRej= -1.00D+00 NBFU=   203
 ExpMin= 4.83D-02 ExpMax= 1.06D+05 ExpMxC= 3.62D+03 IAcc=3 IRadAn=         5 AccDes= 0.00D+00
 Harris functional with IExCor=  205 and IRadAn=       5 diagonalized for initial guess.
 HarFok:  IExCor=  205 AccDes= 0.00D+00 IRadAn=         5 IDoV= 1 UseB2=F ITyADJ=14
 ICtDFT=  3500011 ScaDFX=  1.000000  1.000000  1.000000  1.000000
 FoFCou: FMM=F IPFlag=           0 FMFlag=      100000 FMFlg1=           0
         NFxFlg=           0 DoJE=T BraDBF=F KetDBF=T FulRan=T
         wScrn=  0.000000 ICntrl=       500 IOpCl=  0 I1Cent=   200000004 NGrid=           0
         NMat0=    1 NMatS0=      1 NMatT0=    0 NMatD0=    1 NMtDS0=    0 NMtDT0=    0
 Petite list used in FoFCou.
 Keep R1 ints in memory in canonical form, NReq=220787261.
 Gradient too large for Newton-Raphson -- use scaled steepest descent instead.
     Accept linear search using points  3 and  4.
 Gradient too large for Newton-Raphson -- use scaled steepest descent instead.
 Gradient too large for Newton-Raphson -- use scaled steepest descent instead.
     Accept linear search using points  1 and  2.
 Gradient too large for Newton-Raphson -- use scaled steepest descent instead.
     Accept linear search using points  2 and  3.
     Minimum is close to point  3 DX= -9.72D-02 DF= -1.80D-06 DXR=  6.93D-02 DFR=  3.37D-03 which will be used.
 Gradient too large for Newton-Raphson -- use scaled steepest descent instead.
     Accept linear search using points  1 and  2.
 LinEq1:  Iter=  0 NonCon=     1 RMS=3.75D-05 Max=1.01D-03 NDo=     1
 AX will form     1 AO Fock derivatives at one time.
 LinEq1:  Iter=  1 NonCon=     1 RMS=2.16D-05 Max=5.46D-04 NDo=     1
 LinEq1:  Iter=  2 NonCon=     1 RMS=6.66D-06 Max=1.80D-04 NDo=     1
 LinEq1:  Iter=  3 NonCon=     1 RMS=2.58D-06 Max=6.16D-05 NDo=     1
 LinEq1:  Iter=  4 NonCon=     1 RMS=7.55D-07 Max=1.60D-05 NDo=     1
 LinEq1:  Iter=  5 NonCon=     1 RMS=2.10D-07 Max=4.09D-06 NDo=     1
 LinEq1:  Iter=  6 NonCon=     1 RMS=9.62D-08 Max=2.47D-06 NDo=     1
 LinEq1:  Iter=  7 NonCon=     1 RMS=3.13D-08 Max=4.21D-07 NDo=     1
 LinEq1:  Iter=  8 NonCon=     1 RMS=9.24D-09 Max=1.73D-07 NDo=     1
 LinEq1:  Iter=  9 NonCon=     0 RMS=3.24D-09 Max=9.09D-08 NDo=     1
 Linear equations converged to 9.269D-09 9.269D-08 after     9 iterations.
     Accept linear search using points  1 and  2.
     Minimum is close to point  2 DX= -6.11D-04 DF= -8.98D-12 DXR=  6.11D-04 DFR=  3.75D-07 which will be used.
 LinEq1:  Iter=  0 NonCon=     1 RMS=1.06D-07 Max=3.26D-06 NDo=     1
 LinEq1:  Iter=  1 NonCon=     1 RMS=6.44D-08 Max=1.51D-06 NDo=     1
 LinEq1:  Iter=  2 NonCon=     1 RMS=1.43D-08 Max=3.58D-07 NDo=     1
 LinEq1:  Iter=  3 NonCon=     1 RMS=7.09D-09 Max=1.05D-07 NDo=     1
 LinEq1:  Iter=  4 NonCon=     1 RMS=2.75D-09 Max=5.62D-08 NDo=     1
 LinEq1:  Iter=  5 NonCon=     1 RMS=9.92D-10 Max=2.81D-08 NDo=     1
 LinEq1:  Iter=  6 NonCon=     1 RMS=4.76D-10 Max=1.81D-08 NDo=     1
 LinEq1:  Iter=  7 NonCon=     1 RMS=2.84D-10 Max=5.84D-09 NDo=     1
 LinEq1:  Iter=  8 NonCon=     0 RMS=8.88D-11 Max=1.28D-09 NDo=     1
 Linear equations converged to 1.482D-10 1.482D-09 after     8 iterations.
 SCF Done:  E(RHF) =  -738.321424588     a.u. after    8 cycles
            Convg  =    0.7396D-07                    34 Fock formations.
              S**2 =  0.0000                  -V/T =  2.0005
 ExpMin= 4.83D-02 ExpMax= 1.06D+05 ExpMxC= 3.62D+03 IAcc=3 IRadAn=         5 AccDes= 0.00D+00
 HarFok:  IExCor=  205 AccDes= 0.00D+00 IRadAn=         5 IDoV=-2 UseB2=F ITyADJ=14
 ICtDFT= 12500011 ScaDFX=  1.000000  1.000000  1.000000  1.000000
 Range of M.O.s used for correlation:    10   203
 NBasis=   203 NAE=    24 NBE=    24 NFC=     9 NFV=     0
 NROrb=    194 NOA=    15 NOB=    15 NVA=   179 NVB=   179

 **** Warning!!: The largest alpha MO coefficient is  0.19173991D+02

 Orbital symmetries:
       Occupied  (A) (A) (A) (A) (A) (A) (A) (A) (A) (A) (A) (A)
                 (A) (A) (A) (A) (A) (A) (A) (A) (A) (A) (A) (A)
       Virtual   (A) (A) (A) (A) (A) (A) (A) (A) (A) (A) (A) (A)
                 (A) (A) (A) (A) (A) (A) (A) (A) (A) (A) (A) (A)
                 (A) (A) (A) (A) (A) (A) (A) (A) (A) (A) (A) (A)
                 (A) (A) (A) (A) (A) (A) (A) (A) (A) (A) (A) (A)
                 (A) (A) (A) (A) (A) (A) (A) (A) (A) (A) (A) (A)
                 (A) (A) (A) (A) (A) (A) (A) (A) (A) (A) (A) (A)
                 (A) (A) (A) (A) (A) (A) (A) (A) (A) (A) (A) (A)
                 (A) (A) (A) (A) (A) (A) (A) (A) (A) (A) (A) (A)
                 (A) (A) (A) (A) (A) (A) (A) (A) (A) (A) (A) (A)
                 (A) (A) (A) (A) (A) (A) (A) (A) (A) (A) (A) (A)
                 (A) (A) (A) (A) (A) (A) (A) (A) (A) (A) (A) (A)
                 (A) (A) (A) (A) (A) (A) (A) (A) (A) (A) (A) (A)
                 (A) (A) (A) (A) (A) (A) (A) (A) (A) (A) (A) (A)
                 (A) (A) (A) (A) (A) (A) (A) (A) (A) (A) (A) (A)
                 (A) (A) (A) (A) (A) (A) (A) (A) (A) (A) (A)
    12 initial guesses have been made.
 Convergence on wavefunction:    0.000001000000000
 Iteration     1 Dimension    12 NMult     0 NNew     12
 CISAX will form    12 AO SS matrices at one time.
 New state      1 was old state      2
 New state      2 was old state      6
 New state      3 was old state      9
 Iteration     2 Dimension    24 NMult    12 NNew     12
 New state      3 was old state      5
 Iteration     3 Dimension    27 NMult    24 NNew      3
 Iteration     4 Dimension    30 NMult    27 NNew      3
 Iteration     5 Dimension    33 NMult    30 NNew      3
 Iteration     6 Dimension    36 NMult    33 NNew      3
 Iteration     7 Dimension    39 NMult    36 NNew      3
 Iteration     8 Dimension    42 NMult    39 NNew      3
 Iteration     9 Dimension    45 NMult    42 NNew      3
 Iteration    10 Dimension    47 NMult    45 NNew      2
 Iteration    11 Dimension    48 NMult    47 NNew      1
 Iteration    12 Dimension    49 NMult    48 NNew      1
 Iteration    13 Dimension    50 NMult    49 NNew      1
 ***********************************************************************
 Excited states from <AA,BB:AA,BB> singles matrix:
 ***********************************************************************
 
 Ground to excited state transition densities written to RWF  633
 Ground to excited state transition electric dipole moments (Au):
       state          X           Y           Z        Dip. S.      Osc.
         1         0.0001      0.1107      0.0001      0.0122      0.0008
         2        -0.0001     -0.1016     -0.0001      0.0103      0.0012
         3         0.0014      1.0717      0.0006      1.1486      0.1365
 Ground to excited state transition velocity dipole moments (Au):
       state          X           Y           Z        Dip. S.      Osc.
         1         0.0000      0.0428      0.0000      0.0018      0.0122
         2        -0.0000     -0.0968     -0.0002      0.0094      0.0360
         3        -0.0001      0.0971      0.0000      0.0094      0.0353
 Ground to excited state transition magnetic dipole moments (Au):
       state          X           Y           Z
         1         0.6302     -0.0005      0.0957
         2         0.3957     -0.0008      0.4766
         3         0.1402      0.0039     -0.1770
 Ground to excited state transition velocity quadrupole moments (Au):
       state          XX          YY          ZZ          XY          XZ          YZ
         1        -0.0002      0.0001     -0.0000     -0.0602     -0.0000     -0.0235
         2         0.0001      0.0001     -0.0000     -0.1928     -0.0003      0.0007
         3         0.0004      0.0000     -0.0000     -0.1091      0.0002     -0.0456
 <0|del|b> * <b|rxdel|0> + <0|del|b> * <b|delr+rdel|0>
 Rotatory Strengths (R) in cgs (10**-40 erg-esu-cm/Gauss)
       state          XX          YY          ZZ    R(velocity)    E-M Angle
         1        -0.0697      0.1181      0.0215      0.0233       90.00
         2         0.0205     -0.2164      0.2170      0.0070       90.00
         3         0.6831     -0.0237      0.7669      0.4754       89.06
 1/2[<0|r|b>*<b|rxdel|0> + (<0|rxdel|b>*<b|r|0>)*]
 Rotatory Strengths (R) in cgs (10**-40 erg-esu-cm/Gauss)
       state          XX          YY          ZZ     R(length)
         1        -0.0248      0.0416     -0.0041      0.0042
         2         0.0175     -0.0608      0.0502      0.0023
         3        -0.1408     -2.9741      0.0795     -1.0118
  1/2[<0|del|b>*<b|r|0> + (<0|r|b>*<b|del|0>)*] (Au)
       state          X           Y           Z        Dip. S.   Osc.(frdel)
         1         0.0000      0.0047      0.0000     -0.0047     -0.0032
         2         0.0000      0.0098      0.0000     -0.0098     -0.0066
         3        -0.0000      0.1040      0.0000     -0.1040     -0.0694

 Excitation energies and oscillator strengths:
 
 Excited State   1:      Singlet-A      2.7338 eV  453.52 nm  f=0.0008  <S**2>=0.000
      22 -> 25        -0.37889
      23 -> 25         0.53961
      24 -> 25         0.17003
 This state for optimization and/or second-order correction.
 Total Energy, E(CIS/TDA) =  -738.220957459    
 Copying the excited state density for this state as the 1-particle RhoCI density.
 
 Excited State   2:      Singlet-A      4.7128 eV  263.08 nm  f=0.0012  <S**2>=0.000
      22 -> 25        -0.13820
      22 -> 26         0.41038
      22 -> 30        -0.13792
      23 -> 25        -0.10485
      23 -> 26         0.45766
      23 -> 30        -0.15140
      24 -> 26        -0.12714
 
 Excited State   3:      Singlet-A      4.8498 eV  255.65 nm  f=0.1365  <S**2>=0.000
      18 -> 25         0.12294
      23 -> 25        -0.16855
      24 -> 25         0.62547
      24 -> 26         0.11693
 SavETr:  write IOETrn=   770 NScale= 10 NData=  16 NLR=1 NState=    3 LETran=      64.
          IDoAtm=11111
          Differentiating once with respect to electric field.
                with respect to dipole field.
          Differentiating once with respect to nuclear coordinates.
 Keep R1 ints in memory in canonical form, NReq=220788045.
          There are     1 degrees of freedom in the 1st order CPHF.  IDoFFX=0 NUNeed=     1.
 LinEq1:  Iter=  0 NonCon=     1 RMS=8.08D-03 Max=1.98D-01 NDo=     1
 AX will form     1 AO Fock derivatives at one time.
 LinEq1:  Iter=  1 NonCon=     1 RMS=3.57D-03 Max=5.69D-02 NDo=     1
 LinEq1:  Iter=  2 NonCon=     1 RMS=6.94D-04 Max=9.63D-03 NDo=     1
 LinEq1:  Iter=  3 NonCon=     1 RMS=2.71D-04 Max=4.41D-03 NDo=     1
 LinEq1:  Iter=  4 NonCon=     1 RMS=1.20D-04 Max=3.37D-03 NDo=     1
 LinEq1:  Iter=  5 NonCon=     1 RMS=5.05D-05 Max=1.19D-03 NDo=     1
 LinEq1:  Iter=  6 NonCon=     1 RMS=1.67D-05 Max=3.59D-04 NDo=     1
 LinEq1:  Iter=  7 NonCon=     1 RMS=4.62D-06 Max=1.02D-04 NDo=     1
 LinEq1:  Iter=  8 NonCon=     1 RMS=1.39D-06 Max=3.42D-05 NDo=     1
 LinEq1:  Iter=  9 NonCon=     1 RMS=3.04D-07 Max=3.68D-06 NDo=     1
 LinEq1:  Iter= 10 NonCon=     1 RMS=8.38D-08 Max=2.06D-06 NDo=     1
 LinEq1:  Iter= 11 NonCon=     1 RMS=4.06D-08 Max=1.43D-06 NDo=     1
 LinEq1:  Iter= 12 NonCon=     1 RMS=1.93D-08 Max=3.63D-07 NDo=     1
 LinEq1:  Iter= 13 NonCon=     1 RMS=5.76D-09 Max=1.19D-07 NDo=     1
 LinEq1:  Iter= 14 NonCon=     1 RMS=1.48D-09 Max=2.58D-08 NDo=     1
 LinEq1:  Iter= 15 NonCon=     1 RMS=4.03D-10 Max=7.37D-09 NDo=     1
 LinEq1:  Iter= 16 NonCon=     1 RMS=1.22D-10 Max=3.56D-09 NDo=     1
 LinEq1:  Iter= 17 NonCon=     1 RMS=3.73D-11 Max=1.09D-09 NDo=     1
 LinEq1:  Iter= 18 NonCon=     0 RMS=8.41D-12 Max=1.04D-10 NDo=     1
 Linear equations converged to 1.000D-10 1.000D-09 after    18 iterations.
 End of Minotr F.D. properties file   721 does not exist.
 End of Minotr F.D. properties file   722 does not exist.
 End of Minotr F.D. properties file   788 does not exist.

 **********************************************************************

            Population analysis using the SCF density.

 **********************************************************************

 Orbital symmetries:
       Occupied  (A) (A) (A) (A) (A) (A) (A) (A) (A) (A) (A) (A)
                 (A) (A) (A) (A) (A) (A) (A) (A) (A) (A) (A) (A)
       Virtual   (A) (A) (A) (A) (A) (A) (A) (A) (A) (A) (A) (A)
                 (A) (A) (A) (A) (A) (A) (A) (A) (A) (A) (A) (A)
                 (A) (A) (A) (A) (A) (A) (A) (A) (A) (A) (A) (A)
                 (A) (A) (A) (A) (A) (A) (A) (A) (A) (A) (A) (A)
                 (A) (A) (A) (A) (A) (A) (A) (A) (A) (A) (A) (A)
                 (A) (A) (A) (A) (A) (A) (A) (A) (A) (A) (A) (A)
                 (A) (A) (A) (A) (A) (A) (A) (A) (A) (A) (A) (A)
                 (A) (A) (A) (A) (A) (A) (A) (A) (A) (A) (A) (A)
                 (A) (A) (A) (A) (A) (A) (A) (A) (A) (A) (A) (A)
                 (A) (A) (A) (A) (A) (A) (A) (A) (A) (A) (A) (A)
                 (A) (A) (A) (A) (A) (A) (A) (A) (A) (A) (A) (A)
                 (A) (A) (A) (A) (A) (A) (A) (A) (A) (A) (A) (A)
                 (A) (A) (A) (A) (A) (A) (A) (A) (A) (A) (A) (A)
                 (A) (A) (A) (A) (A) (A) (A) (A) (A) (A) (A) (A)
                 (A) (A) (A) (A) (A) (A) (A) (A) (A) (A) (A)
 The electronic state is 1-A.
 Alpha  occ. eigenvalues -- -104.95636 -20.75601 -20.64042 -20.64034 -15.92904
 Alpha  occ. eigenvalues --  -10.67727  -8.14549  -8.14143  -8.14117  -1.69307
 Alpha  occ. eigenvalues --   -1.49617  -1.40563  -1.16003  -0.95156  -0.81590
 Alpha  occ. eigenvalues --   -0.79677  -0.78841  -0.67199  -0.64423  -0.58832
 Alpha  occ. eigenvalues --   -0.52942  -0.52367  -0.49736  -0.46568
 Alpha virt. eigenvalues --   -0.01388   0.02298   0.07651   0.10368   0.11191
 Alpha virt. eigenvalues --    0.13547   0.15079   0.16232   0.17517   0.23783
 Alpha virt. eigenvalues --    0.25057   0.25380   0.28518   0.28609   0.31902
 Alpha virt. eigenvalues --    0.32382   0.33263   0.36153   0.37518   0.37907
 Alpha virt. eigenvalues --    0.43053   0.43847   0.44214   0.45647   0.46142
 Alpha virt. eigenvalues --    0.47268   0.49070   0.51791   0.53975   0.57321
 Alpha virt. eigenvalues --    0.58445   0.61090   0.63592   0.76886   0.81836
 Alpha virt. eigenvalues --    0.84652   0.91788   0.96838   0.99090   0.99266
 Alpha virt. eigenvalues --    1.03924   1.06149   1.12302   1.13461   1.17113
 Alpha virt. eigenvalues --    1.17385   1.18765   1.19059   1.22272   1.22347
 Alpha virt. eigenvalues --    1.23949   1.24659   1.27758   1.27831   1.31818
 Alpha virt. eigenvalues --    1.33677   1.35137   1.37599   1.40330   1.42773
 Alpha virt. eigenvalues --    1.44788   1.45537   1.58217   1.59889   1.63415
 Alpha virt. eigenvalues --    1.66674   1.68992   1.78561   1.80284   1.92798
 Alpha virt. eigenvalues --    2.05477   2.12963   2.33727   2.34257   2.38505
 Alpha virt. eigenvalues --    2.41951   2.43509   2.48007   2.49413   2.51584
 Alpha virt. eigenvalues --    2.53867   2.56012   2.61761   2.63340   2.67636
 Alpha virt. eigenvalues --    2.68674   2.79303   2.87959   2.97113   3.13256
 Alpha virt. eigenvalues --    3.36607   3.48917   3.51229   3.54036   3.65759
 Alpha virt. eigenvalues --    3.66065   3.78236   3.79126   3.79617   3.81530
 Alpha virt. eigenvalues --    3.92801   3.93206   4.00620   4.09957   4.10222
 Alpha virt. eigenvalues --    4.16806   4.30792   4.36358   4.47796   4.58604
 Alpha virt. eigenvalues --    4.64204   4.76103   4.88909   5.10489   5.15388
 Alpha virt. eigenvalues --    5.27113   5.30829   5.38578   5.40837   5.43041
 Alpha virt. eigenvalues --    5.43949   5.44812   5.47667   5.51113   5.58021
 Alpha virt. eigenvalues --    5.58821   5.61460   5.62532   5.71730   5.72171
 Alpha virt. eigenvalues --    5.76289   5.80495   5.81033   5.89837   5.98070
 Alpha virt. eigenvalues --    6.00133   6.00934   6.05282   6.07576   6.13933
 Alpha virt. eigenvalues --    6.38556   6.41552   6.63886   6.73832   6.81945
 Alpha virt. eigenvalues --    6.85981   6.86682   7.32194   7.82744   8.28548
 Alpha virt. eigenvalues --   10.54462  10.81754  10.86235  10.92200  11.59406
 Alpha virt. eigenvalues --   11.73061  14.91671  14.94919  14.96185  14.97082
 Alpha virt. eigenvalues --   14.97629  14.98739  15.08543  15.13271  15.24150
 Alpha virt. eigenvalues --   15.29203  15.33002  15.36578  15.41926  15.84235
 Alpha virt. eigenvalues --   16.16039  26.64562  26.79898  27.95392  37.26945
 Alpha virt. eigenvalues --   51.81521  51.98722  52.06403 219.41660
          Condensed to atoms (all electrons):
               1          2          3          4          5
     1  N    6.015717  -0.020342  -0.020122  -0.296539  -0.187919
     2  O   -0.020342   8.936103  -0.206912  -0.156618   0.034880
     3  O   -0.020122  -0.206912   8.935674  -0.156634   0.034805
     4  O   -0.296539  -0.156618  -0.156634   9.069311   0.003509
     5  Cl  -0.187919   0.034880   0.034805   0.003509  16.986976
 Mulliken charges:
               1
     1  N    1.509204
     2  O   -0.587112
     3  O   -0.586812
     4  O   -0.463029
     5  Cl   0.127749
 Sum of Mulliken charges =   0.00000
 Mulliken charges with hydrogens summed into heavy atoms:
               1
     1  N    1.509204
     2  O   -0.587112
     3  O   -0.586812
     4  O   -0.463029
     5  Cl   0.127749
 Electronic spatial extent (au):  <R**2>=            477.7923
 Charge=              0.0000 electrons
 Dipole moment (field-independent basis, Debye):
    X=              3.2599    Y=             -0.0010    Z=             -0.2337  Tot=              3.2683
 Quadrupole moment (field-independent basis, Debye-Ang):
   XX=            -33.9514   YY=            -37.2790   ZZ=            -32.7556
   XY=              0.0017   XZ=             -1.8685   YZ=             -0.0018
 Traceless Quadrupole moment (field-independent basis, Debye-Ang):
   XX=              0.7106   YY=             -2.6169   ZZ=              1.9064
   XY=              0.0017   XZ=             -1.8685   YZ=             -0.0018
 Octapole moment (field-independent basis, Debye-Ang**2):
  XXX=             14.3945  YYY=             -0.0056  ZZZ=              1.5062  XYY=              2.4257
  XXY=              0.0062  XXZ=             -0.3591  XZZ=             -0.4806  YZZ=              0.0002
  YYZ=              1.2412  XYZ=             -0.0008
 Hexadecapole moment (field-independent basis, Debye-Ang**3):
 XXXX=           -391.3626 YYYY=           -102.9130 ZZZZ=            -46.9044 XXXY=              0.0138
 XXXZ=            -14.5549 YYYX=             -0.0015 YYYZ=             -0.0010 ZZZX=             -0.2925
 ZZZY=             -0.0034 XXYY=            -90.1120 XXZZ=            -73.2135 YYZZ=            -24.9155
 XXYZ=             -0.0088 YYXZ=             -0.8099 ZZXY=              0.0001
 N-N= 2.278475403806D+02 E-N=-2.208183231905D+03  KE= 7.379567692921D+02
 Calling FoFJK, ICntrl=  10005127 FMM=F ISym2X=0 I1Cent= 0 IOpClX= 0 NMat=1 NMatS=1 NMatT=0.
 ***** Axes restored to original set *****
 -------------------------------------------------------------------
 Center     Atomic                   Forces (Hartrees/Bohr)
 Number     Number              X              Y              Z
 -------------------------------------------------------------------
      1        7          -0.001841058    0.000007308   -0.000187815
      2        8           0.000918864   -0.003359721    0.000124995
      3        8           0.000927074    0.003353360    0.000123572
      4        8           0.013892542    0.000014155   -0.008592362
      5       17          -0.013897421   -0.000015103    0.008531610
 -------------------------------------------------------------------
 Cartesian Forces:  Max     0.013897421 RMS     0.006112560

 GradGradGradGradGradGradGradGradGradGradGradGradGradGradGradGradGradGrad
 Berny optimization.
 FormGI is forming the generalized inverse of G from B-inverse, IUseBI=4.
 Internal  Forces:  Max     0.016305524 RMS     0.005155029
 Search for a local minimum.
 Step number   1 out of a maximum of   21
 All quantities printed in internal units (Hartrees-Bohrs-Radians)
 Mixed Optimization -- RFO/linear search
 Second derivative matrix not updated -- first step.
 The second derivative matrix:
                          R1        R2        R3        R4        A1
           R1           0.87880
           R2           0.00000   0.87890
           R3           0.00000   0.00000   0.55667
           R4           0.00000   0.00000   0.00000   0.37478
           A1           0.00000   0.00000   0.00000   0.00000   0.25000
           A2           0.00000   0.00000   0.00000   0.00000   0.00000
           A3           0.00000   0.00000   0.00000   0.00000   0.00000
           A4           0.00000   0.00000   0.00000   0.00000   0.00000
           D1           0.00000   0.00000   0.00000   0.00000   0.00000
           D2           0.00000   0.00000   0.00000   0.00000   0.00000
           D3           0.00000   0.00000   0.00000   0.00000   0.00000
                          A2        A3        A4        D1        D2
           A2           0.25000
           A3           0.00000   0.25000
           A4           0.00000   0.00000   0.25000
           D1           0.00000   0.00000   0.00000   0.03440
           D2           0.00000   0.00000   0.00000   0.00000   0.01996
           D3           0.00000   0.00000   0.00000   0.00000   0.00000
                          D3
           D3           0.01996
 ITU=  0
     Eigenvalues ---    0.01996   0.05765   0.22259   0.25000   0.25000
     Eigenvalues ---    0.37478   0.55667   0.87880   0.87890
 RFO step:  Lambda=-7.63355669D-04 EMin= 1.99602773D-02
 Linear search not attempted -- first point.
 Iteration  1 RMS(Cart)=  0.01134892 RMS(Int)=  0.00003524
 Iteration  2 RMS(Cart)=  0.00003010 RMS(Int)=  0.00001541
 Iteration  3 RMS(Cart)=  0.00000000 RMS(Int)=  0.00001541
 Variable       Old X    -DE/DX   Delta X   Delta X   Delta X     New X
                                 (Linear)    (Quad)   (Total)
    R1        2.33926  -0.00328   0.00000  -0.00373  -0.00373   2.33552
    R2        2.33921  -0.00328   0.00000  -0.00373  -0.00373   2.33548
    R3        2.54544  -0.00004   0.00000  -0.00008  -0.00008   2.54537
    R4        3.18832  -0.01631   0.00000  -0.04342  -0.04342   3.14490
    A1        1.92587  -0.00171   0.00000  -0.00987  -0.00988   1.91599
    A2        2.02784   0.00067   0.00000   0.00072   0.00068   2.02853
    A3        2.02770   0.00053   0.00000   0.00005   0.00003   2.02772
    A4        1.93782   0.00052   0.00000   0.00206   0.00206   1.93988
    D1       -2.35566   0.00027   0.00000   0.00938   0.00935  -2.34631
    D2       -1.98540  -0.00068   0.00000  -0.00750  -0.00751  -1.99291
    D3        1.98811   0.00067   0.00000   0.00719   0.00720   1.99531
         Item               Value     Threshold  Converged?
 Maximum Force            0.016306     0.000450     NO 
 RMS     Force            0.005155     0.000300     NO 
 Maximum Displacement     0.024959     0.001800     NO 
 RMS     Displacement     0.011358     0.001200     NO 
 Predicted change in Energy=-3.824963D-04
 GradGradGradGradGradGradGradGradGradGradGradGradGradGradGradGradGradGrad

                          Input orientation:                          
 ---------------------------------------------------------------------
 Center     Atomic      Atomic             Coordinates (Angstroms)
 Number     Number       Type             X           Y           Z
 ---------------------------------------------------------------------
      1          7           0       -0.824792    0.000179   -0.134704
      2          8           0       -1.534677    1.011574   -0.110047
      3          8           0       -1.535769   -1.010446   -0.111087
      4          8           0        0.237972   -0.001422    0.692824
      5         17           0        1.665274   -0.000022   -0.162979
 ---------------------------------------------------------------------
                    Distance matrix (angstroms):
                    1          2          3          4          5
     1  N    0.000000
     2  O    1.235906   0.000000
     3  O    1.235884   2.022021   0.000000
     4  O    1.346949   2.193866   2.193299   0.000000
     5  Cl   2.490226   3.356458   3.357130   1.664208   0.000000
 Stoichiometry    ClNO3
 Framework group  C1[X(ClNO3)]
 Deg. of freedom     9
 Full point group                 C1      NOp   1
 Largest Abelian subgroup         C1      NOp   1
 Largest concise Abelian subgroup C1      NOp   1
                         Standard orientation:                         
 ---------------------------------------------------------------------
 Center     Atomic      Atomic             Coordinates (Angstroms)
 Number     Number       Type             X           Y           Z
 ---------------------------------------------------------------------
      1          7           0       -0.822530    0.000111   -0.134039
      2          8           0       -1.532484    1.011415   -0.107682
      3          8           0       -1.533321   -1.010606   -0.108814
      4          8           0        0.242158   -0.001393    0.691013
      5         17           0        1.667463    0.000229   -0.168109
 ---------------------------------------------------------------------
 Rotational constants (GHZ):          12.0472601           2.6317108           2.3453526
 Standard basis: 6-311++G(3df,3pd) (5D, 7F)
 There are   233 symmetry adapted cartesian basis functions of A   symmetry.
 There are   203 symmetry adapted basis functions of A   symmetry.
   203 basis functions,   307 primitive gaussians,   233 cartesian basis functions
    24 alpha electrons       24 beta electrons
       nuclear repulsion energy       228.9954264974 Hartrees.
 NAtoms=    5 NActive=    5 NUniq=    5 SFac= 1.00D+00 NAtFMM=   60 NAOKFM=F Big=F
 Integral buffers will be    131072 words long.
 Raffenetti 1 integral format.
 Two-electron integral symmetry is turned on.
 One-electron integrals computed using PRISM.
 NBasis=   203 RedAO= T EigKep=  2.11D-04  NBF=   203
 NBsUse=   203 1.00D-06 EigRej= -1.00D+00 NBFU=   203
 Initial guess from the checkpoint file:  "/localscratch/alrebei.28376409.0/Gau-27864.chk"
 B after Tr=    -0.000000    0.000000    0.000000
         Rot=    1.000000   -0.000018   -0.000803   -0.000054 Ang=  -0.09 deg.
 ExpMin= 4.83D-02 ExpMax= 1.06D+05 ExpMxC= 3.62D+03 IAcc=2 IRadAn=         4 AccDes= 0.00D+00
 Harris functional with IExCor=  205 and IRadAn=       4 diagonalized for initial guess.
 HarFok:  IExCor=  205 AccDes= 0.00D+00 IRadAn=         4 IDoV= 1 UseB2=F ITyADJ=14
 ICtDFT=  3500011 ScaDFX=  1.000000  1.000000  1.000000  1.000000
 FoFCou: FMM=F IPFlag=           0 FMFlag=      100000 FMFlg1=           0
         NFxFlg=           0 DoJE=T BraDBF=F KetDBF=T FulRan=T
         wScrn=  0.000000 ICntrl=       500 IOpCl=  0 I1Cent=   200000004 NGrid=           0
         NMat0=    1 NMatS0=      1 NMatT0=    0 NMatD0=    1 NMtDS0=    0 NMtDT0=    0
 Petite list used in FoFCou.
 Keep R1 ints in memory in canonical form, NReq=220787261.
 Gradient too large for Newton-Raphson -- use scaled steepest descent instead.
 Gradient too large for Newton-Raphson -- use scaled steepest descent instead.
 Gradient too large for Newton-Raphson -- use scaled steepest descent instead.
 Gradient too large for Newton-Raphson -- use scaled steepest descent instead.
     Accept linear search using points  1 and  2.
 Gradient too large for Newton-Raphson -- use scaled steepest descent instead.
     Accept linear search using points  5 and  6.
 Gradient too large for Newton-Raphson -- use scaled steepest descent instead.
 Gradient too large for Newton-Raphson -- use scaled steepest descent instead.
 Gradient too large for Newton-Raphson -- use scaled steepest descent instead.
     Accept linear search using points  1 and  2.
 LinEq1:  Iter=  0 NonCon=     1 RMS=4.91D-05 Max=7.99D-04 NDo=     1
 AX will form     1 AO Fock derivatives at one time.
 LinEq1:  Iter=  1 NonCon=     1 RMS=8.23D-06 Max=2.13D-04 NDo=     1
 LinEq1:  Iter=  2 NonCon=     1 RMS=3.13D-06 Max=8.34D-05 NDo=     1
 LinEq1:  Iter=  3 NonCon=     1 RMS=1.62D-06 Max=4.48D-05 NDo=     1
 LinEq1:  Iter=  4 NonCon=     1 RMS=6.51D-07 Max=9.46D-06 NDo=     1
 LinEq1:  Iter=  5 NonCon=     1 RMS=2.22D-07 Max=5.45D-06 NDo=     1
 LinEq1:  Iter=  6 NonCon=     1 RMS=5.55D-08 Max=9.19D-07 NDo=     1
 LinEq1:  Iter=  7 NonCon=     1 RMS=2.80D-08 Max=8.54D-07 NDo=     1
 LinEq1:  Iter=  8 NonCon=     1 RMS=1.32D-08 Max=3.06D-07 NDo=     1
 LinEq1:  Iter=  9 NonCon=     1 RMS=5.29D-09 Max=9.34D-08 NDo=     1
 LinEq1:  Iter= 10 NonCon=     0 RMS=1.74D-09 Max=4.81D-08 NDo=     1
 Linear equations converged to 9.269D-09 9.269D-08 after    10 iterations.
     Accept linear search using points  1 and  2.
     Minimum is close to point  2 DX= -3.24D-04 DF= -3.98D-12 DXR=  3.24D-04 DFR=  1.05D-07 which will be used.
 LinEq1:  Iter=  0 NonCon=     1 RMS=6.62D-08 Max=1.39D-06 NDo=     1
 LinEq1:  Iter=  1 NonCon=     1 RMS=3.47D-08 Max=8.65D-07 NDo=     1
 LinEq1:  Iter=  2 NonCon=     1 RMS=1.19D-08 Max=2.31D-07 NDo=     1
 LinEq1:  Iter=  3 NonCon=     1 RMS=5.51D-09 Max=1.22D-07 NDo=     1
 LinEq1:  Iter=  4 NonCon=     1 RMS=2.50D-09 Max=4.30D-08 NDo=     1
 LinEq1:  Iter=  5 NonCon=     1 RMS=1.17D-09 Max=2.59D-08 NDo=     1
 LinEq1:  Iter=  6 NonCon=     1 RMS=4.25D-10 Max=9.27D-09 NDo=     1
 LinEq1:  Iter=  7 NonCon=     1 RMS=1.65D-10 Max=3.68D-09 NDo=     1
 LinEq1:  Iter=  8 NonCon=     1 RMS=6.72D-11 Max=1.92D-09 NDo=     1
 LinEq1:  Iter=  9 NonCon=     1 RMS=4.20D-11 Max=1.16D-09 NDo=     1
 LinEq1:  Iter= 10 NonCon=     0 RMS=1.30D-11 Max=2.98D-10 NDo=     1
 Linear equations converged to 8.457D-11 8.457D-10 after    10 iterations.
 SCF Done:  E(RHF) =  -738.319524376     a.u. after   11 cycles
            Convg  =    0.1953D-07                    51 Fock formations.
              S**2 =  0.0000                  -V/T =  2.0004
 ExpMin= 4.83D-02 ExpMax= 1.06D+05 ExpMxC= 3.62D+03 IAcc=3 IRadAn=         5 AccDes= 0.00D+00
 HarFok:  IExCor=  205 AccDes= 0.00D+00 IRadAn=         5 IDoV=-2 UseB2=F ITyADJ=14
 ICtDFT= 12500011 ScaDFX=  1.000000  1.000000  1.000000  1.000000
 Range of M.O.s used for correlation:    10   203
 NBasis=   203 NAE=    24 NBE=    24 NFC=     9 NFV=     0
 NROrb=    194 NOA=    15 NOB=    15 NVA=   179 NVB=   179

 **** Warning!!: The largest alpha MO coefficient is  0.19480084D+02

 Orbital symmetries:
       Occupied  (A) (A) (A) (A) (A) (A) (A) (A) (A) (A) (A) (A)
                 (A) (A) (A) (A) (A) (A) (A) (A) (A) (A) (A) (A)
       Virtual   (A) (A) (A) (A) (A) (A) (A) (A) (A) (A) (A) (A)
                 (A) (A) (A) (A) (A) (A) (A) (A) (A) (A) (A) (A)
                 (A) (A) (A) (A) (A) (A) (A) (A) (A) (A) (A) (A)
                 (A) (A) (A) (A) (A) (A) (A) (A) (A) (A) (A) (A)
                 (A) (A) (A) (A) (A) (A) (A) (A) (A) (A) (A) (A)
                 (A) (A) (A) (A) (A) (A) (A) (A) (A) (A) (A) (A)
                 (A) (A) (A) (A) (A) (A) (A) (A) (A) (A) (A) (A)
                 (A) (A) (A) (A) (A) (A) (A) (A) (A) (A) (A) (A)
                 (A) (A) (A) (A) (A) (A) (A) (A) (A) (A) (A) (A)
                 (A) (A) (A) (A) (A) (A) (A) (A) (A) (A) (A) (A)
                 (A) (A) (A) (A) (A) (A) (A) (A) (A) (A) (A) (A)
                 (A) (A) (A) (A) (A) (A) (A) (A) (A) (A) (A) (A)
                 (A) (A) (A) (A) (A) (A) (A) (A) (A) (A) (A) (A)
                 (A) (A) (A) (A) (A) (A) (A) (A) (A) (A) (A) (A)
                 (A) (A) (A) (A) (A) (A) (A) (A) (A) (A) (A)
 Generating guess from densities on rwf.
 Convergence on wavefunction:    0.000001000000000
 Iteration     1 Dimension     3 NMult     0 NNew      3
 CISAX will form     3 AO SS matrices at one time.
 New state      2 was old state      3
 New state      3 was old state      2
 Iteration     2 Dimension     6 NMult     3 NNew      3
 Iteration     3 Dimension     9 NMult     6 NNew      3
 Iteration     4 Dimension    12 NMult     9 NNew      3
 Iteration     5 Dimension    15 NMult    12 NNew      3
 Iteration     6 Dimension    18 NMult    15 NNew      3
 Iteration     7 Dimension    21 NMult    18 NNew      3
 Iteration     8 Dimension    24 NMult    21 NNew      3
 Iteration     9 Dimension    27 NMult    24 NNew      3
 Iteration    10 Dimension    30 NMult    27 NNew      3
 Iteration    11 Dimension    32 NMult    30 NNew      2
 Iteration    12 Dimension    34 NMult    32 NNew      2
 Iteration    13 Dimension    36 NMult    34 NNew      2
 Iteration    14 Dimension    39 NMult    36 NNew      3
 Iteration    15 Dimension    41 NMult    39 NNew      2
 ***********************************************************************
 Excited states from <AA,BB:AA,BB> singles matrix:
 ***********************************************************************
 
 Ground to excited state transition densities written to RWF  633
 Ground to excited state transition electric dipole moments (Au):
       state          X           Y           Z        Dip. S.      Osc.
         1        -0.0000      0.1145      0.0001      0.0131      0.0009
         2         0.0005      1.0655      0.0007      1.1353      0.1333
         3        -0.0006      0.0998     -0.0001      0.0100      0.0012
 Ground to excited state transition velocity dipole moments (Au):
       state          X           Y           Z        Dip. S.      Osc.
         1         0.0000      0.0439      0.0000      0.0019      0.0131
         2         0.0000      0.1156      0.0001      0.0134      0.0506
         3         0.0001     -0.0770     -0.0002      0.0059      0.0219
 Ground to excited state transition magnetic dipole moments (Au):
       state          X           Y           Z
         1         0.6351     -0.0001      0.0869
         2         0.0571      0.0009     -0.2767
         3         0.4190     -0.0038      0.4483
 Ground to excited state transition velocity quadrupole moments (Au):
       state          XX          YY          ZZ          XY          XZ          YZ
         1        -0.0001      0.0001     -0.0000     -0.0644     -0.0000     -0.0242
         2         0.0000      0.0000     -0.0000     -0.0782      0.0001     -0.0455
         3        -0.0003      0.0000     -0.0000     -0.2104     -0.0006     -0.0056
 <0|del|b> * <b|rxdel|0> + <0|del|b> * <b|delr+rdel|0>
 Rotatory Strengths (R) in cgs (10**-40 erg-esu-cm/Gauss)
       state          XX          YY          ZZ    R(velocity)    E-M Angle
         1        -0.0077      0.0734      0.0406      0.0354       90.00
         2         0.1431     -0.0228      0.2254      0.1152       90.00
         3         0.3953     -0.1206      0.7784      0.3510       89.67
 1/2[<0|r|b>*<b|rxdel|0> + (<0|rxdel|b>*<b|r|0>)*]
 Rotatory Strengths (R) in cgs (10**-40 erg-esu-cm/Gauss)
       state          XX          YY          ZZ     R(length)
         1         0.0006      0.0075     -0.0044      0.0013
         2        -0.0193     -0.6562      0.1381     -0.1791
         3         0.1830      0.2667      0.0207      0.1568
  1/2[<0|del|b>*<b|r|0> + (<0|r|b>*<b|del|0>)*] (Au)
       state          X           Y           Z        Dip. S.   Osc.(frdel)
         1        -0.0000      0.0050      0.0000     -0.0050     -0.0033
         2         0.0000      0.1231      0.0000     -0.1231     -0.0821
         3        -0.0000     -0.0077      0.0000      0.0077      0.0051

 Excitation energies and oscillator strengths:
 
 Excited State   1:      Singlet-A      2.6690 eV  464.53 nm  f=0.0009  <S**2>=0.000
      22 -> 25        -0.40056
      23 -> 25         0.52577
      24 -> 25         0.17740
 This state for optimization and/or second-order correction.
 Total Energy, E(CIS/TDA) =  -738.221438984    
 Copying the excited state density for this state as the 1-particle RhoCI density.
 
 Excited State   2:      Singlet-A      4.7922 eV  258.72 nm  f=0.1333  <S**2>=0.000
      18 -> 25         0.12352
      23 -> 25        -0.15637
      23 -> 26        -0.11009
      24 -> 25         0.62189
 
 Excited State   3:      Singlet-A      4.9023 eV  252.91 nm  f=0.0012  <S**2>=0.000
      22 -> 26         0.39735
      22 -> 30        -0.14075
      23 -> 25        -0.10133
      23 -> 26         0.46211
      23 -> 30        -0.15720
      24 -> 25         0.10771
      24 -> 26        -0.11443
 SavETr:  write IOETrn=   770 NScale= 10 NData=  16 NLR=1 NState=    3 LETran=      64.
          IDoAtm=11111
          Differentiating once with respect to electric field.
                with respect to dipole field.
          Differentiating once with respect to nuclear coordinates.
 Keep R1 ints in memory in canonical form, NReq=220788045.
          There are     1 degrees of freedom in the 1st order CPHF.  IDoFFX=0 NUNeed=     1.
 LinEq1:  Iter=  0 NonCon=     1 RMS=8.09D-03 Max=1.93D-01 NDo=     1
 AX will form     1 AO Fock derivatives at one time.
 LinEq1:  Iter=  1 NonCon=     1 RMS=3.56D-03 Max=5.90D-02 NDo=     1
 LinEq1:  Iter=  2 NonCon=     1 RMS=6.83D-04 Max=8.82D-03 NDo=     1
 LinEq1:  Iter=  3 NonCon=     1 RMS=2.63D-04 Max=3.98D-03 NDo=     1
 LinEq1:  Iter=  4 NonCon=     1 RMS=1.16D-04 Max=3.37D-03 NDo=     1
 LinEq1:  Iter=  5 NonCon=     1 RMS=4.92D-05 Max=1.14D-03 NDo=     1
 LinEq1:  Iter=  6 NonCon=     1 RMS=1.65D-05 Max=3.57D-04 NDo=     1
 LinEq1:  Iter=  7 NonCon=     1 RMS=4.59D-06 Max=9.77D-05 NDo=     1
 LinEq1:  Iter=  8 NonCon=     1 RMS=1.38D-06 Max=3.34D-05 NDo=     1
 LinEq1:  Iter=  9 NonCon=     1 RMS=3.41D-07 Max=7.69D-06 NDo=     1
 LinEq1:  Iter= 10 NonCon=     1 RMS=1.71D-07 Max=5.94D-06 NDo=     1
 LinEq1:  Iter= 11 NonCon=     1 RMS=7.22D-08 Max=1.90D-06 NDo=     1
 LinEq1:  Iter= 12 NonCon=     1 RMS=1.93D-08 Max=3.63D-07 NDo=     1
 LinEq1:  Iter= 13 NonCon=     1 RMS=5.37D-09 Max=1.16D-07 NDo=     1
 LinEq1:  Iter= 14 NonCon=     1 RMS=1.38D-09 Max=2.39D-08 NDo=     1
 LinEq1:  Iter= 15 NonCon=     1 RMS=4.04D-10 Max=9.17D-09 NDo=     1
 LinEq1:  Iter= 16 NonCon=     1 RMS=1.33D-10 Max=3.83D-09 NDo=     1
 LinEq1:  Iter= 17 NonCon=     0 RMS=3.95D-11 Max=8.75D-10 NDo=     1
 Linear equations converged to 1.000D-10 1.000D-09 after    17 iterations.
 End of Minotr F.D. properties file   721 does not exist.
 End of Minotr F.D. properties file   722 does not exist.
 End of Minotr F.D. properties file   788 does not exist.
 Calling FoFJK, ICntrl=  10005127 FMM=F ISym2X=0 I1Cent= 0 IOpClX= 0 NMat=1 NMatS=1 NMatT=0.
 ***** Axes restored to original set *****
 -------------------------------------------------------------------
 Center     Atomic                   Forces (Hartrees/Bohr)
 Number     Number              X              Y              Z
 -------------------------------------------------------------------
      1        7          -0.002857648   -0.000078866   -0.000463029
      2        8           0.000222665    0.000644225   -0.000064203
      3        8           0.000153724   -0.000633058   -0.000119819
      4        8           0.006047811    0.000069028   -0.002370696
      5       17          -0.003566552   -0.000001328    0.003017747
 -------------------------------------------------------------------
 Cartesian Forces:  Max     0.006047811 RMS     0.002210917

 GradGradGradGradGradGradGradGradGradGradGradGradGradGradGradGradGradGrad
 Berny optimization.
 Using GEDIIS/GDIIS optimizer.
 FormGI is forming the generalized inverse of G from B-inverse, IUseBI=4.
 Internal  Forces:  Max     0.004609460 RMS     0.001749992
 Search for a local minimum.
 Step number   2 out of a maximum of   21
 All quantities printed in internal units (Hartrees-Bohrs-Radians)
 Mixed Optimization -- RFO/linear search
 Update second derivatives using D2CorX and points    1    2
 DE= -4.82D-04 DEPred=-3.82D-04 R= 1.26D+00
 TightC=F SS=  1.41D+00  RLast= 4.70D-02 DXNew= 5.0454D-01 1.4106D-01
 Trust test= 1.26D+00 RLast= 4.70D-02 DXMaxT set to 3.00D-01
 The second derivative matrix:
                          R1        R2        R3        R4        A1
           R1           0.88822
           R2           0.00960   0.88868
           R3           0.01514   0.01525   0.56664
           R4           0.00474   0.00533   0.04779   0.26486
           A1           0.00521   0.00533   0.01018  -0.00241   0.25266
           A2          -0.00595  -0.00600  -0.00434  -0.01760  -0.00395
           A3          -0.00412  -0.00415  -0.00270  -0.01305  -0.00277
           A4           0.01403   0.01411   0.00772   0.04854   0.00962
           D1          -0.00115  -0.00117  -0.00163  -0.00119  -0.00066
           D2           0.00585   0.00590   0.00422   0.01744   0.00389
           D3          -0.00577  -0.00582  -0.00415  -0.01725  -0.00384
                          A2        A3        A4        D1        D2
           A2           0.25186
           A3           0.00118   0.25073
           A4          -0.00347  -0.00209   0.25558
           D1           0.00065   0.00044  -0.00149   0.03453
           D2          -0.00181  -0.00114   0.00336  -0.00064   0.02172
           D3           0.00178   0.00113  -0.00331   0.00063  -0.00174
                          D3
           D3           0.02167
 ITU=  1  0
 Use linear search instead of GDIIS.
     Eigenvalues ---    0.01996   0.05997   0.20861   0.22618   0.25076
     Eigenvalues ---    0.30671   0.57372   0.87885   0.90072
 RFO step:  Lambda=-8.64666671D-05 EMin= 1.99603791D-02
 Quartic linear search produced a step of  0.30179.
 Iteration  1 RMS(Cart)=  0.00646051 RMS(Int)=  0.00003153
 Iteration  2 RMS(Cart)=  0.00003448 RMS(Int)=  0.00001127
 Iteration  3 RMS(Cart)=  0.00000000 RMS(Int)=  0.00001127
 Variable       Old X    -DE/DX   Delta X   Delta X   Delta X     New X
                                 (Linear)    (Quad)   (Total)
    R1        2.33552   0.00040  -0.00113   0.00132   0.00019   2.33572
    R2        2.33548   0.00043  -0.00113   0.00136   0.00024   2.33572
    R3        2.54537   0.00235  -0.00002   0.00552   0.00550   2.55086
    R4        3.14490  -0.00461  -0.01310  -0.00708  -0.02018   3.12472
    A1        1.91599   0.00077  -0.00298   0.00836   0.00536   1.92135
    A2        2.02853  -0.00037   0.00021  -0.00057  -0.00039   2.02814
    A3        2.02772  -0.00012   0.00001   0.00095   0.00094   2.02866
    A4        1.93988   0.00236   0.00062   0.01186   0.01248   1.95236
    D1       -2.34631  -0.00013   0.00282  -0.00879  -0.00598  -2.35229
    D2       -1.99291   0.00034  -0.00227   0.00711   0.00484  -1.98807
    D3        1.99531  -0.00033   0.00217  -0.00634  -0.00417   1.99115
         Item               Value     Threshold  Converged?
 Maximum Force            0.004609     0.000450     NO 
 RMS     Force            0.001750     0.000300     NO 
 Maximum Displacement     0.013179     0.001800     NO 
 RMS     Displacement     0.006448     0.001200     NO 
 Predicted change in Energy=-7.412950D-05
 GradGradGradGradGradGradGradGradGradGradGradGradGradGradGradGradGradGrad

                          Input orientation:                          
 ---------------------------------------------------------------------
 Center     Atomic      Atomic             Coordinates (Angstroms)
 Number     Number       Type             X           Y           Z
 ---------------------------------------------------------------------
      1          7           0       -0.828315   -0.000156   -0.135229
      2          8           0       -1.535045    1.013528   -0.108897
      3          8           0       -1.537030   -1.012483   -0.110035
      4          8           0        0.243107   -0.001279    0.685849
      5         17           0        1.665290    0.000252   -0.157683
 ---------------------------------------------------------------------
                    Distance matrix (angstroms):
                    1          2          3          4          5
     1  N    0.000000
     2  O    1.236008   0.000000
     3  O    1.236009   2.026013   0.000000
     4  O    1.349857   2.196196   2.196554   0.000000
     5  Cl   2.493706   3.357269   3.358981   1.653528   0.000000
 Stoichiometry    ClNO3
 Framework group  C1[X(ClNO3)]
 Deg. of freedom     9
 Full point group                 C1      NOp   1
 Largest Abelian subgroup         C1      NOp   1
 Largest concise Abelian subgroup C1      NOp   1
                         Standard orientation:                         
 ---------------------------------------------------------------------
 Center     Atomic      Atomic             Coordinates (Angstroms)
 Number     Number       Type             X           Y           Z
 ---------------------------------------------------------------------
      1          7           0       -0.826361   -0.000093   -0.134159
      2          8           0       -1.532858    1.013677   -0.105046
      3          8           0       -1.535089   -1.012334   -0.106054
      4          8           0        0.248354   -0.001295    0.682603
      5         17           0        1.667134    0.000016   -0.166642
 ---------------------------------------------------------------------
 Rotational constants (GHZ):          12.0733709           2.6319321           2.3417338
 Standard basis: 6-311++G(3df,3pd) (5D, 7F)
 There are   233 symmetry adapted cartesian basis functions of A   symmetry.
 There are   203 symmetry adapted basis functions of A   symmetry.
   203 basis functions,   307 primitive gaussians,   233 cartesian basis functions
    24 alpha electrons       24 beta electrons
       nuclear repulsion energy       229.0983903154 Hartrees.
 NAtoms=    5 NActive=    5 NUniq=    5 SFac= 1.00D+00 NAtFMM=   60 NAOKFM=F Big=F
 Integral buffers will be    131072 words long.
 Raffenetti 1 integral format.
 Two-electron integral symmetry is turned on.
 One-electron integrals computed using PRISM.
 NBasis=   203 RedAO= T EigKep=  2.13D-04  NBF=   203
 NBsUse=   203 1.00D-06 EigRej= -1.00D+00 NBFU=   203
 Initial guess from the checkpoint file:  "/localscratch/alrebei.28376409.0/Gau-27864.chk"
 B after Tr=     0.000000    0.000000    0.000000
         Rot=    1.000000    0.000043   -0.000427    0.000105 Ang=   0.05 deg.
 Keep R1 ints in memory in canonical form, NReq=220787261.
 Gradient too large for Newton-Raphson -- use scaled steepest descent instead.
     Accept linear search using points  3 and  4.
 Gradient too large for Newton-Raphson -- use scaled steepest descent instead.
 Gradient too large for Newton-Raphson -- use scaled steepest descent instead.
     Minimum is close to point  3 DX= -1.33D-02 DF= -2.82D-08 DXR=  7.12D-02 DFR=  5.09D-03 which will be used.
 Gradient too large for Newton-Raphson -- use scaled steepest descent instead.
     Accept linear search using points  1 and  2.
 LinEq1:  Iter=  0 NonCon=     1 RMS=6.13D-05 Max=1.27D-03 NDo=     1
 AX will form     1 AO Fock derivatives at one time.
 LinEq1:  Iter=  1 NonCon=     1 RMS=1.06D-05 Max=3.12D-04 NDo=     1
 LinEq1:  Iter=  2 NonCon=     1 RMS=4.49D-06 Max=9.75D-05 NDo=     1
 LinEq1:  Iter=  3 NonCon=     1 RMS=2.05D-06 Max=5.98D-05 NDo=     1
 LinEq1:  Iter=  4 NonCon=     1 RMS=6.38D-07 Max=1.44D-05 NDo=     1
 LinEq1:  Iter=  5 NonCon=     1 RMS=2.92D-07 Max=5.58D-06 NDo=     1
 LinEq1:  Iter=  6 NonCon=     1 RMS=1.48D-07 Max=3.11D-06 NDo=     1
 LinEq1:  Iter=  7 NonCon=     1 RMS=5.30D-08 Max=1.17D-06 NDo=     1
 LinEq1:  Iter=  8 NonCon=     1 RMS=2.19D-08 Max=4.06D-07 NDo=     1
 LinEq1:  Iter=  9 NonCon=     1 RMS=1.07D-08 Max=2.20D-07 NDo=     1
 LinEq1:  Iter= 10 NonCon=     1 RMS=5.19D-09 Max=1.22D-07 NDo=     1
 LinEq1:  Iter= 11 NonCon=     0 RMS=1.87D-09 Max=5.23D-08 NDo=     1
 Linear equations converged to 9.269D-09 9.269D-08 after    11 iterations.
     Minimum is close to point  2 DX=  1.39D-04 DF= -1.25D-12 DXR=  1.39D-04 DFR=  2.06D-08 which will be used.
 LinEq1:  Iter=  0 NonCon=     1 RMS=1.11D-07 Max=3.62D-06 NDo=     1
 LinEq1:  Iter=  1 NonCon=     1 RMS=5.05D-08 Max=1.36D-06 NDo=     1
 LinEq1:  Iter=  2 NonCon=     1 RMS=2.05D-08 Max=3.28D-07 NDo=     1
 LinEq1:  Iter=  3 NonCon=     1 RMS=7.46D-09 Max=1.55D-07 NDo=     1
 LinEq1:  Iter=  4 NonCon=     1 RMS=3.58D-09 Max=7.85D-08 NDo=     1
 LinEq1:  Iter=  5 NonCon=     1 RMS=1.84D-09 Max=4.43D-08 NDo=     1
 LinEq1:  Iter=  6 NonCon=     1 RMS=6.88D-10 Max=1.13D-08 NDo=     1
 LinEq1:  Iter=  7 NonCon=     1 RMS=2.14D-10 Max=5.30D-09 NDo=     1
 LinEq1:  Iter=  8 NonCon=     1 RMS=1.11D-10 Max=3.75D-09 NDo=     1
 LinEq1:  Iter=  9 NonCon=     0 RMS=4.99D-11 Max=1.11D-09 NDo=     1
 Linear equations converged to 1.529D-10 1.529D-09 after     9 iterations.
 SCF Done:  E(RHF) =  -738.321136879     a.u. after    7 cycles
            Convg  =    0.3057D-07                    35 Fock formations.
              S**2 =  0.0000                  -V/T =  2.0004
 ExpMin= 4.83D-02 ExpMax= 1.06D+05 ExpMxC= 3.62D+03 IAcc=3 IRadAn=         5 AccDes= 0.00D+00
 HarFok:  IExCor=  205 AccDes= 0.00D+00 IRadAn=         5 IDoV=-2 UseB2=F ITyADJ=14
 ICtDFT= 12500011 ScaDFX=  1.000000  1.000000  1.000000  1.000000
 Range of M.O.s used for correlation:    10   203
 NBasis=   203 NAE=    24 NBE=    24 NFC=     9 NFV=     0
 NROrb=    194 NOA=    15 NOB=    15 NVA=   179 NVB=   179

 **** Warning!!: The largest alpha MO coefficient is  0.19633778D+02

 Orbital symmetries:
       Occupied  (A) (A) (A) (A) (A) (A) (A) (A) (A) (A) (A) (A)
                 (A) (A) (A) (A) (A) (A) (A) (A) (A) (A) (A) (A)
       Virtual   (A) (A) (A) (A) (A) (A) (A) (A) (A) (A) (A) (A)
                 (A) (A) (A) (A) (A) (A) (A) (A) (A) (A) (A) (A)
                 (A) (A) (A) (A) (A) (A) (A) (A) (A) (A) (A) (A)
                 (A) (A) (A) (A) (A) (A) (A) (A) (A) (A) (A) (A)
                 (A) (A) (A) (A) (A) (A) (A) (A) (A) (A) (A) (A)
                 (A) (A) (A) (A) (A) (A) (A) (A) (A) (A) (A) (A)
                 (A) (A) (A) (A) (A) (A) (A) (A) (A) (A) (A) (A)
                 (A) (A) (A) (A) (A) (A) (A) (A) (A) (A) (A) (A)
                 (A) (A) (A) (A) (A) (A) (A) (A) (A) (A) (A) (A)
                 (A) (A) (A) (A) (A) (A) (A) (A) (A) (A) (A) (A)
                 (A) (A) (A) (A) (A) (A) (A) (A) (A) (A) (A) (A)
                 (A) (A) (A) (A) (A) (A) (A) (A) (A) (A) (A) (A)
                 (A) (A) (A) (A) (A) (A) (A) (A) (A) (A) (A) (A)
                 (A) (A) (A) (A) (A) (A) (A) (A) (A) (A) (A) (A)
                 (A) (A) (A) (A) (A) (A) (A) (A) (A) (A) (A)
 Generating guess from densities on rwf.
 Convergence on wavefunction:    0.000001000000000
 Iteration     1 Dimension     3 NMult     0 NNew      3
 CISAX will form     3 AO SS matrices at one time.
 Iteration     2 Dimension     6 NMult     3 NNew      3
 Iteration     3 Dimension     9 NMult     6 NNew      3
 Iteration     4 Dimension    12 NMult     9 NNew      3
 Iteration     5 Dimension    15 NMult    12 NNew      3
 Iteration     6 Dimension    18 NMult    15 NNew      3
 Iteration     7 Dimension    21 NMult    18 NNew      3
 Iteration     8 Dimension    24 NMult    21 NNew      3
 Iteration     9 Dimension    27 NMult    24 NNew      3
 No map to state      3
 Iteration    10 Dimension    30 NMult    27 NNew      3
 Iteration    11 Dimension    33 NMult    30 NNew      3
 Iteration    12 Dimension    35 NMult    33 NNew      2
 Iteration    13 Dimension    37 NMult    35 NNew      2
 Iteration    14 Dimension    39 NMult    37 NNew      2
 Iteration    15 Dimension    40 NMult    39 NNew      1
 Iteration    16 Dimension    41 NMult    40 NNew      1
 Iteration    17 Dimension    42 NMult    41 NNew      1
 Iteration    18 Dimension    43 NMult    42 NNew      1
 Iteration    19 Dimension    44 NMult    43 NNew      1
 ***********************************************************************
 Excited states from <AA,BB:AA,BB> singles matrix:
 ***********************************************************************
 
 Ground to excited state transition densities written to RWF  633
 Ground to excited state transition electric dipole moments (Au):
       state          X           Y           Z        Dip. S.      Osc.
         1         0.0001      0.1115      0.0000      0.0124      0.0008
         2         0.0018      1.0657      0.0005      1.1357      0.1342
         3        -0.2532      0.0045     -0.0052      0.0642      0.0078
 Ground to excited state transition velocity dipole moments (Au):
       state          X           Y           Z        Dip. S.      Osc.
         1         0.0001      0.0431      0.0000      0.0019      0.0124
         2        -0.0001      0.1133      0.0001      0.0128      0.0483
         3         0.0535      0.0006      0.0002      0.0029      0.0105
 Ground to excited state transition magnetic dipole moments (Au):
       state          X           Y           Z
         1         0.6336     -0.0010      0.0853
         2         0.0677      0.0044     -0.2726
         3        -0.0025     -1.0061     -0.0026
 Ground to excited state transition velocity quadrupole moments (Au):
       state          XX          YY          ZZ          XY          XZ          YZ
         1        -0.0002      0.0000     -0.0000     -0.0631     -0.0001     -0.0240
         2         0.0003      0.0000     -0.0000     -0.0781      0.0002     -0.0458
         3        -0.1205     -0.0079      0.0068      0.0004     -0.0934     -0.0002
 <0|del|b> * <b|rxdel|0> + <0|del|b> * <b|delr+rdel|0>
 Rotatory Strengths (R) in cgs (10**-40 erg-esu-cm/Gauss)
       state          XX          YY          ZZ    R(velocity)    E-M Angle
         1        -0.1432      0.1495     -0.0160     -0.0032       90.00
         2         0.8852     -0.0356      1.0169      0.6221       89.16
         3        -1.0616     -0.2762     -1.5178     -0.9519       90.78
 1/2[<0|r|b>*<b|rxdel|0> + (<0|rxdel|b>*<b|r|0>)*]
 Rotatory Strengths (R) in cgs (10**-40 erg-esu-cm/Gauss)
       state          XX          YY          ZZ     R(length)
         1        -0.0570      0.0794     -0.0028      0.0065
         2        -0.0858     -3.3004      0.1026     -1.0946
         3        -0.4422      3.2191     -0.0097      0.9224
  1/2[<0|del|b>*<b|r|0> + (<0|r|b>*<b|del|0>)*] (Au)
       state          X           Y           Z        Dip. S.   Osc.(frdel)
         1         0.0000      0.0048      0.0000     -0.0048     -0.0032
         2        -0.0000      0.1208      0.0000     -0.1208     -0.0805
         3        -0.0136      0.0000     -0.0000      0.0135      0.0090

 Excitation energies and oscillator strengths:
 
 Excited State   1:      Singlet-A      2.7114 eV  457.27 nm  f=0.0008  <S**2>=0.000
      22 -> 25        -0.42617
      23 -> 25         0.50854
      24 -> 25         0.16900
 This state for optimization and/or second-order correction.
 Total Energy, E(CIS/TDA) =  -738.221495254    
 Copying the excited state density for this state as the 1-particle RhoCI density.
 
 Excited State   2:      Singlet-A      4.8214 eV  257.15 nm  f=0.1342  <S**2>=0.000
      18 -> 25         0.12479
      23 -> 25        -0.14840
      24 -> 25         0.62720
 
 Excited State   3:      Singlet-A      4.9363 eV  251.17 nm  f=0.0078  <S**2>=0.000
      20 -> 25         0.55181
      21 -> 25        -0.39717
 SavETr:  write IOETrn=   770 NScale= 10 NData=  16 NLR=1 NState=    3 LETran=      64.
          IDoAtm=11111
          Differentiating once with respect to electric field.
                with respect to dipole field.
          Differentiating once with respect to nuclear coordinates.
 Keep R1 ints in memory in canonical form, NReq=220788045.
          There are     1 degrees of freedom in the 1st order CPHF.  IDoFFX=0 NUNeed=     1.
 LinEq1:  Iter=  0 NonCon=     1 RMS=8.09D-03 Max=1.92D-01 NDo=     1
 AX will form     1 AO Fock derivatives at one time.
 LinEq1:  Iter=  1 NonCon=     1 RMS=3.56D-03 Max=5.97D-02 NDo=     1
 LinEq1:  Iter=  2 NonCon=     1 RMS=6.79D-04 Max=8.37D-03 NDo=     1
 LinEq1:  Iter=  3 NonCon=     1 RMS=2.59D-04 Max=3.81D-03 NDo=     1
 LinEq1:  Iter=  4 NonCon=     1 RMS=1.14D-04 Max=3.28D-03 NDo=     1
 LinEq1:  Iter=  5 NonCon=     1 RMS=4.84D-05 Max=1.12D-03 NDo=     1
 LinEq1:  Iter=  6 NonCon=     1 RMS=1.63D-05 Max=3.56D-04 NDo=     1
 LinEq1:  Iter=  7 NonCon=     1 RMS=4.53D-06 Max=9.85D-05 NDo=     1
 LinEq1:  Iter=  8 NonCon=     1 RMS=1.37D-06 Max=3.31D-05 NDo=     1
 LinEq1:  Iter=  9 NonCon=     1 RMS=3.60D-07 Max=9.18D-06 NDo=     1
 LinEq1:  Iter= 10 NonCon=     1 RMS=1.92D-07 Max=6.44D-06 NDo=     1
 LinEq1:  Iter= 11 NonCon=     1 RMS=7.29D-08 Max=1.89D-06 NDo=     1
 LinEq1:  Iter= 12 NonCon=     1 RMS=1.90D-08 Max=3.48D-07 NDo=     1
 LinEq1:  Iter= 13 NonCon=     1 RMS=5.24D-09 Max=1.15D-07 NDo=     1
 LinEq1:  Iter= 14 NonCon=     1 RMS=1.34D-09 Max=2.49D-08 NDo=     1
 LinEq1:  Iter= 15 NonCon=     1 RMS=3.75D-10 Max=7.52D-09 NDo=     1
 LinEq1:  Iter= 16 NonCon=     1 RMS=1.18D-10 Max=3.37D-09 NDo=     1
 LinEq1:  Iter= 17 NonCon=     0 RMS=3.58D-11 Max=9.02D-10 NDo=     1
 Linear equations converged to 1.000D-10 1.000D-09 after    17 iterations.
 End of Minotr F.D. properties file   721 does not exist.
 End of Minotr F.D. properties file   722 does not exist.
 End of Minotr F.D. properties file   788 does not exist.
 Calling FoFJK, ICntrl=  10005127 FMM=F ISym2X=0 I1Cent= 0 IOpClX= 0 NMat=1 NMatS=1 NMatT=0.
 ***** Axes restored to original set *****
 -------------------------------------------------------------------
 Center     Atomic                   Forces (Hartrees/Bohr)
 Number     Number              X              Y              Z
 -------------------------------------------------------------------
      1        7          -0.000203062    0.000068651   -0.001685087
      2        8           0.000301404   -0.000706235    0.000429322
      3        8           0.000385582    0.000711251    0.000492378
      4        8          -0.000781980   -0.000069864    0.001317619
      5       17           0.000298056   -0.000003803   -0.000554233
 -------------------------------------------------------------------
 Cartesian Forces:  Max     0.001685087 RMS     0.000697849

 GradGradGradGradGradGradGradGradGradGradGradGradGradGradGradGradGradGrad
 Berny optimization.
 Using GEDIIS/GDIIS optimizer.
 FormGI is forming the generalized inverse of G from B-inverse, IUseBI=4.
 Internal  Forces:  Max     0.001020581 RMS     0.000571765
 Search for a local minimum.
 Step number   3 out of a maximum of   21
 All quantities printed in internal units (Hartrees-Bohrs-Radians)
 Mixed Optimization -- En-DIIS/RFO-DIIS
 Update second derivatives using D2CorX and points    1    2    3
 DE= -5.63D-05 DEPred=-7.41D-05 R= 7.59D-01
 TightC=F SS=  1.41D+00  RLast= 2.65D-02 DXNew= 5.0454D-01 7.9364D-02
 Trust test= 7.59D-01 RLast= 2.65D-02 DXMaxT set to 3.00D-01
 The second derivative matrix:
                          R1        R2        R3        R4        A1
           R1           0.88916
           R2           0.01078   0.89012
           R3           0.02126   0.02173   0.56133
           R4          -0.02126  -0.02239   0.05504   0.27523
           A1           0.00668   0.00672   0.00105   0.02640   0.24652
           A2          -0.00622  -0.00641  -0.00919   0.00101  -0.00583
           A3          -0.00214  -0.00205  -0.00384  -0.01188  -0.00528
           A4           0.02392   0.02485   0.01134   0.01756   0.00089
           D1          -0.00340  -0.00369  -0.00604   0.01873  -0.00038
           D2           0.00726   0.00760   0.01206  -0.01386   0.00602
           D3          -0.00714  -0.00748  -0.01197   0.01386  -0.00600
                          A2        A3        A4        D1        D2
           A2           0.25168
           A3          -0.00030   0.25048
           A4          -0.01022  -0.00043   0.27652
           D1           0.00188  -0.00098  -0.01077   0.03732
           D2          -0.00218   0.00127   0.01574  -0.00340   0.02347
           D3           0.00213  -0.00127  -0.01557   0.00335  -0.00343
                          D3
           D3           0.02330
 ITU=  1  1  0
 Use linear search instead of GDIIS.
     Eigenvalues ---    0.01996   0.06135   0.22420   0.23520   0.26951
     Eigenvalues ---    0.29393   0.57085   0.87885   0.90673
 RFO step:  Lambda=-1.12609035D-05 EMin= 1.99606075D-02
 Quartic linear search produced a step of -0.18004.
 Iteration  1 RMS(Cart)=  0.00255530 RMS(Int)=  0.00001486
 Iteration  2 RMS(Cart)=  0.00001030 RMS(Int)=  0.00001080
 Iteration  3 RMS(Cart)=  0.00000000 RMS(Int)=  0.00001080
 Variable       Old X    -DE/DX   Delta X   Delta X   Delta X     New X
                                 (Linear)    (Quad)   (Total)
    R1        2.33572  -0.00074  -0.00003  -0.00060  -0.00063   2.33508
    R2        2.33572  -0.00079  -0.00004  -0.00064  -0.00068   2.33504
    R3        2.55086   0.00008  -0.00099   0.00143   0.00044   2.55130
    R4        3.12472   0.00054   0.00363  -0.00285   0.00078   3.12550
    A1        1.92135  -0.00010  -0.00097  -0.00124  -0.00223   1.91913
    A2        2.02814  -0.00001   0.00007  -0.00248  -0.00243   2.02570
    A3        2.02866  -0.00055  -0.00017  -0.00353  -0.00372   2.02494
    A4        1.95236  -0.00102  -0.00225  -0.00050  -0.00274   1.94962
    D1       -2.35229   0.00068   0.00108   0.00858   0.00965  -2.34264
    D2       -1.98807  -0.00039  -0.00087  -0.00438  -0.00525  -1.99331
    D3        1.99115   0.00039   0.00075   0.00422   0.00497   1.99611
         Item               Value     Threshold  Converged?
 Maximum Force            0.001021     0.000450     NO 
 RMS     Force            0.000572     0.000300     NO 
 Maximum Displacement     0.006073     0.001800     NO 
 RMS     Displacement     0.002562     0.001200     NO 
 Predicted change in Energy=-8.566069D-06
 GradGradGradGradGradGradGradGradGradGradGradGradGradGradGradGradGradGrad

                          Input orientation:                          
 ---------------------------------------------------------------------
 Center     Atomic      Atomic             Coordinates (Angstroms)
 Number     Number       Type             X           Y           Z
 ---------------------------------------------------------------------
      1          7           0       -0.827215    0.000138   -0.138443
      2          8           0       -1.535065    1.012504   -0.107612
      3          8           0       -1.536302   -1.011361   -0.108588
      4          8           0        0.241911   -0.001484    0.686002
      5         17           0        1.664679    0.000066   -0.157354
 ---------------------------------------------------------------------
                    Distance matrix (angstroms):
                    1          2          3          4          5
     1  N    0.000000
     2  O    1.235673   0.000000
     3  O    1.235648   2.023866   0.000000
     4  O    1.350090   2.194456   2.193916   0.000000
     5  Cl   2.491965   3.356466   3.357327   1.653941   0.000000
 Stoichiometry    ClNO3
 Framework group  C1[X(ClNO3)]
 Deg. of freedom     9
 Full point group                 C1      NOp   1
 Largest Abelian subgroup         C1      NOp   1
 Largest concise Abelian subgroup C1      NOp   1
                         Standard orientation:                         
 ---------------------------------------------------------------------
 Center     Atomic      Atomic             Coordinates (Angstroms)
 Number     Number       Type             X           Y           Z
 ---------------------------------------------------------------------
      1          7           0       -0.825118    0.000103   -0.137619
      2          8           0       -1.532923    1.012409   -0.103908
      3          8           0       -1.534004   -1.011456   -0.105137
      4          8           0        0.247204   -0.001538    0.682665
      5         17           0        1.666683    0.000232   -0.166214
 ---------------------------------------------------------------------
 Rotational constants (GHZ):          12.0926879           2.6338225           2.3440142
 Standard basis: 6-311++G(3df,3pd) (5D, 7F)
 There are   233 symmetry adapted cartesian basis functions of A   symmetry.
 There are   203 symmetry adapted basis functions of A   symmetry.
   203 basis functions,   307 primitive gaussians,   233 cartesian basis functions
    24 alpha electrons       24 beta electrons
       nuclear repulsion energy       229.1790669181 Hartrees.
 NAtoms=    5 NActive=    5 NUniq=    5 SFac= 1.00D+00 NAtFMM=   60 NAOKFM=F Big=F
 Integral buffers will be    131072 words long.
 Raffenetti 1 integral format.
 Two-electron integral symmetry is turned on.
 One-electron integrals computed using PRISM.
 NBasis=   203 RedAO= T EigKep=  2.12D-04  NBF=   203
 NBsUse=   203 1.00D-06 EigRej= -1.00D+00 NBFU=   203
 Initial guess from the checkpoint file:  "/localscratch/alrebei.28376409.0/Gau-27864.chk"
 B after Tr=    -0.000000    0.000000   -0.000000
         Rot=    1.000000   -0.000087    0.000075   -0.000087 Ang=  -0.02 deg.
 Keep R1 ints in memory in canonical form, NReq=220787261.
 LinEq1:  Iter=  0 NonCon=     1 RMS=4.16D-05 Max=6.68D-04 NDo=     1
 AX will form     1 AO Fock derivatives at one time.
 LinEq1:  Iter=  1 NonCon=     1 RMS=6.63D-06 Max=7.88D-05 NDo=     1
 LinEq1:  Iter=  2 NonCon=     1 RMS=4.26D-06 Max=1.30D-04 NDo=     1
 LinEq1:  Iter=  3 NonCon=     1 RMS=1.14D-06 Max=1.90D-05 NDo=     1
 LinEq1:  Iter=  4 NonCon=     1 RMS=5.23D-07 Max=1.05D-05 NDo=     1
 LinEq1:  Iter=  5 NonCon=     1 RMS=2.22D-07 Max=4.28D-06 NDo=     1
 LinEq1:  Iter=  6 NonCon=     1 RMS=9.28D-08 Max=2.30D-06 NDo=     1
 LinEq1:  Iter=  7 NonCon=     1 RMS=4.44D-08 Max=9.02D-07 NDo=     1
 LinEq1:  Iter=  8 NonCon=     1 RMS=2.49D-08 Max=6.38D-07 NDo=     1
 LinEq1:  Iter=  9 NonCon=     1 RMS=8.40D-09 Max=1.70D-07 NDo=     1
 LinEq1:  Iter= 10 NonCon=     0 RMS=2.93D-09 Max=6.78D-08 NDo=     1
 Linear equations converged to 9.269D-09 9.269D-08 after    10 iterations.
     Accept linear search using points  1 and  2.
     Minimum is close to point  2 DX= -1.38D-04 DF= -5.68D-13 DXR=  1.38D-04 DFR=  1.73D-08 which will be used.
 LinEq1:  Iter=  0 NonCon=     1 RMS=4.37D-08 Max=1.43D-06 NDo=     1
 LinEq1:  Iter=  1 NonCon=     1 RMS=2.22D-08 Max=6.54D-07 NDo=     1
 LinEq1:  Iter=  2 NonCon=     1 RMS=9.00D-09 Max=1.33D-07 NDo=     1
 LinEq1:  Iter=  3 NonCon=     1 RMS=3.66D-09 Max=7.61D-08 NDo=     1
 LinEq1:  Iter=  4 NonCon=     1 RMS=1.70D-09 Max=3.55D-08 NDo=     1
 LinEq1:  Iter=  5 NonCon=     1 RMS=7.93D-10 Max=1.60D-08 NDo=     1
 LinEq1:  Iter=  6 NonCon=     1 RMS=3.22D-10 Max=5.93D-09 NDo=     1
 LinEq1:  Iter=  7 NonCon=     1 RMS=1.27D-10 Max=2.61D-09 NDo=     1
 LinEq1:  Iter=  8 NonCon=     1 RMS=7.35D-11 Max=2.33D-09 NDo=     1
 LinEq1:  Iter=  9 NonCon=     1 RMS=3.15D-11 Max=6.14D-10 NDo=     1
 LinEq1:  Iter= 10 NonCon=     0 RMS=8.69D-12 Max=1.25D-10 NDo=     1
 Linear equations converged to 6.077D-11 6.077D-10 after    10 iterations.
 SCF Done:  E(RHF) =  -738.319844198     a.u. after    3 cycles
            Convg  =    0.1139D-07                    23 Fock formations.
              S**2 =  0.0000                  -V/T =  2.0004
 ExpMin= 4.83D-02 ExpMax= 1.06D+05 ExpMxC= 3.62D+03 IAcc=3 IRadAn=         5 AccDes= 0.00D+00
 HarFok:  IExCor=  205 AccDes= 0.00D+00 IRadAn=         5 IDoV=-2 UseB2=F ITyADJ=14
 ICtDFT= 12500011 ScaDFX=  1.000000  1.000000  1.000000  1.000000
 Range of M.O.s used for correlation:    10   203
 NBasis=   203 NAE=    24 NBE=    24 NFC=     9 NFV=     0
 NROrb=    194 NOA=    15 NOB=    15 NVA=   179 NVB=   179

 **** Warning!!: The largest alpha MO coefficient is  0.19643488D+02

 Orbital symmetries:
       Occupied  (A) (A) (A) (A) (A) (A) (A) (A) (A) (A) (A) (A)
                 (A) (A) (A) (A) (A) (A) (A) (A) (A) (A) (A) (A)
       Virtual   (A) (A) (A) (A) (A) (A) (A) (A) (A) (A) (A) (A)
                 (A) (A) (A) (A) (A) (A) (A) (A) (A) (A) (A) (A)
                 (A) (A) (A) (A) (A) (A) (A) (A) (A) (A) (A) (A)
                 (A) (A) (A) (A) (A) (A) (A) (A) (A) (A) (A) (A)
                 (A) (A) (A) (A) (A) (A) (A) (A) (A) (A) (A) (A)
                 (A) (A) (A) (A) (A) (A) (A) (A) (A) (A) (A) (A)
                 (A) (A) (A) (A) (A) (A) (A) (A) (A) (A) (A) (A)
                 (A) (A) (A) (A) (A) (A) (A) (A) (A) (A) (A) (A)
                 (A) (A) (A) (A) (A) (A) (A) (A) (A) (A) (A) (A)
                 (A) (A) (A) (A) (A) (A) (A) (A) (A) (A) (A) (A)
                 (A) (A) (A) (A) (A) (A) (A) (A) (A) (A) (A) (A)
                 (A) (A) (A) (A) (A) (A) (A) (A) (A) (A) (A) (A)
                 (A) (A) (A) (A) (A) (A) (A) (A) (A) (A) (A) (A)
                 (A) (A) (A) (A) (A) (A) (A) (A) (A) (A) (A) (A)
                 (A) (A) (A) (A) (A) (A) (A) (A) (A) (A) (A)
 Generating guess from densities on rwf.
 Convergence on wavefunction:    0.000001000000000
 Iteration     1 Dimension     3 NMult     0 NNew      3
 CISAX will form     3 AO SS matrices at one time.
 Iteration     2 Dimension     6 NMult     3 NNew      3
 Iteration     3 Dimension     9 NMult     6 NNew      3
 Iteration     4 Dimension    12 NMult     9 NNew      3
 Iteration     5 Dimension    15 NMult    12 NNew      3
 Iteration     6 Dimension    18 NMult    15 NNew      3
 Iteration     7 Dimension    21 NMult    18 NNew      3
 Iteration     8 Dimension    24 NMult    21 NNew      3
 Iteration     9 Dimension    27 NMult    24 NNew      3
 Iteration    10 Dimension    30 NMult    27 NNew      3
 Iteration    11 Dimension    32 NMult    30 NNew      2
 Iteration    12 Dimension    34 NMult    32 NNew      2
 Iteration    13 Dimension    36 NMult    34 NNew      2
 Iteration    14 Dimension    37 NMult    36 NNew      1
 ***********************************************************************
 Excited states from <AA,BB:AA,BB> singles matrix:
 ***********************************************************************
 
 Ground to excited state transition densities written to RWF  633
 Ground to excited state transition electric dipole moments (Au):
       state          X           Y           Z        Dip. S.      Osc.
         1         0.0000      0.1138      0.0001      0.0130      0.0008
         2         0.0007      1.0644      0.0008      1.1331      0.1328
         3        -0.2539      0.0012     -0.0058      0.0645      0.0078
 Ground to excited state transition velocity dipole moments (Au):
       state          X           Y           Z        Dip. S.      Osc.
         1         0.0000      0.0437      0.0000      0.0019      0.0129
         2         0.0000      0.1137      0.0001      0.0129      0.0490
[...]
 Calling FoFJK, ICntrl=  10002127 FMM=F ISym2X=0 I1Cent= 0 IOpClX= 0 NMat=1 NMatS=1 NMatT=0.
 Full mass-weighted force constant matrix:
 Low frequencies ---   -8.2699   -5.4765   -2.8357   -0.0042   -0.0036   -0.0036
 Low frequencies ---   11.8751  298.5977  530.8129
 Diagonal vibrational polarizability:
        4.2145585       2.3006332       0.8369902
 Harmonic frequencies (cm**-1), IR intensities (KM/Mole), Raman scattering
 activities (A**4/AMU), depolarization ratios for plane and unpolarized
 incident light, reduced masses (AMU), force constants (mDyne/A),
 and normal coordinates:
                      1                      2                      3
                      A                      A                      A
 Frequencies --     11.5139               298.5977               530.8129
 Red. masses --     17.5473                19.5061                17.1427
 Frc consts  --      0.0014                 1.0247                 2.8459
 IR Inten    --      0.0057                 2.2101                 8.4498
  Atom  AN      X      Y      Z        X      Y      Z        X      Y      Z
     1   7     0.00   0.24   0.00    -0.24   0.00  -0.32    -0.01  -0.00   0.48
     2   8    -0.43  -0.08   0.25    -0.35  -0.07   0.23    -0.35  -0.21  -0.27
     3   8     0.43  -0.08  -0.25    -0.35   0.07   0.23    -0.36   0.21  -0.27
     4   8    -0.00   0.60   0.00    -0.00   0.00  -0.52     0.16   0.00   0.41
     5  17     0.00  -0.30  -0.00     0.42  -0.00   0.15     0.26   0.00  -0.14
                      4                      5                      6
                      A                      A                      A
 Frequencies --    551.5058               677.0628               920.2437
 Red. masses --     15.7707                15.9328                16.5933
 Frc consts  --      2.8262                 4.3033                 8.2792
 IR Inten    --      6.3966                 0.2019                 9.3525
  Atom  AN      X      Y      Z        X      Y      Z        X      Y      Z
     1   7    -0.00  -0.34  -0.00     0.47  -0.00  -0.42    -0.03   0.00  -0.56
     2   8     0.46  -0.15   0.23    -0.12  -0.48   0.09     0.02   0.06   0.11
     3   8    -0.45  -0.15  -0.22    -0.11   0.48   0.09     0.02  -0.06   0.11
     4   8    -0.00   0.57  -0.00     0.24   0.00   0.09    -0.45  -0.00   0.62
     5  17    -0.00   0.02   0.00    -0.19  -0.00   0.04     0.20   0.00  -0.16
                      7                      8                      9
                      A                      A                      A
 Frequencies --   1023.4901              1464.8164              1513.7760
 Red. masses --     15.7387                14.6316                14.8552
 Frc consts  --      9.7138                18.4973                20.0564
 IR Inten    --     80.6094                46.4273               101.9545
  Atom  AN      X      Y      Z        X      Y      Z        X      Y      Z
     1   7    -0.30   0.00  -0.36    -0.00   0.83   0.00     0.76   0.00   0.03
     2   8    -0.13   0.28  -0.03     0.21  -0.34  -0.03    -0.28   0.36   0.01
     3   8    -0.13  -0.28  -0.03    -0.21  -0.33   0.03    -0.28  -0.36   0.01
     4   8     0.71  -0.00   0.27     0.00  -0.05   0.00    -0.08  -0.00  -0.06
     5  17    -0.09  -0.00   0.05     0.00   0.00  -0.00    -0.01  -0.00  -0.00

 -------------------
 - Thermochemistry -
 -------------------
 Temperature   298.150 Kelvin.  Pressure   1.00000 Atm.
 Atom     1 has atomic number  7 and mass  14.00307
 Atom     2 has atomic number  8 and mass  15.99491
 Atom     3 has atomic number  8 and mass  15.99491
 Atom     4 has atomic number  8 and mass  15.99491
 Atom     5 has atomic number 17 and mass  34.96885
 Molecular mass:    96.95667 amu.
 Principal axes and moments of inertia in atomic units:
                           1         2         3
     Eigenvalues --   149.37729 685.41706 770.10365
           X            1.00000  -0.00000   0.00154
           Y            0.00000   1.00000   0.00000
           Z           -0.00154  -0.00000   1.00000
 This molecule is an asymmetric top.
 Rotational symmetry number  1.
 Rotational temperatures (Kelvin)      0.57983     0.12637     0.11247
 Rotational constants (GHZ):          12.08176     2.63306     2.34350
 Zero-point vibrational energy      41820.4 (Joules/Mol)
                                    9.99531 (Kcal/Mol)
 Warning -- explicit consideration of   4 degrees of freedom as
           vibrations may cause significant error
 Vibrational temperatures:     16.57   429.62   763.72   793.49   974.14
          (Kelvin)           1324.03  1472.57  2107.54  2177.99
 
 Zero-point correction=                           0.015929 (Hartree/Particle)
 Thermal correction to Energy=                    0.020708
 Thermal correction to Enthalpy=                  0.021653
 Thermal correction to Gibbs Free Energy=        -0.014624
 Sum of electronic and zero-point Energies=           -738.205575
 Sum of electronic and thermal Energies=              -738.200795
 Sum of electronic and thermal Enthalpies=            -738.199851
 Sum of electronic and thermal Free Energies=         -738.236127
 
                     E (Thermal)             CV                S
                      KCal/Mol        Cal/Mol-Kelvin    Cal/Mol-Kelvin
 Total                   12.995             13.798             76.351
 Electronic               0.000              0.000              0.000
 Translational            0.889              2.981             39.626
 Rotational               0.889              2.981             25.870
 Vibrational             11.217              7.836             10.855
 Vibration     1          0.593              1.987              7.731
 Vibration     2          0.692              1.676              1.425
 Vibration     3          0.886              1.182              0.585
 Vibration     4          0.907              1.136              0.541
                       Q            Log10(Q)             Ln(Q)
 Total Bot       0.532876D+07          6.726626         15.488630
 Total V=0       0.113042D+15         14.053238         32.358776
 Vib (Bot)       0.141275D-05         -5.849934        -13.469971
 Vib (Bot)    1  0.179955D+02          1.255164          2.890122
 Vib (Bot)    2  0.637401D+00         -0.195588         -0.450357
 Vib (Bot)    3  0.301062D+00         -0.521344         -1.200439
 Vib (Bot)    4  0.284141D+00         -0.546466         -1.258285
 Vib (V=0)       0.299694D+02          1.476678          3.400176
 Vib (V=0)    1  0.185025D+02          1.267229          2.917904
 Vib (V=0)    2  0.131011D+01          0.117308          0.270112
 Vib (V=0)    3  0.108364D+01          0.034886          0.080328
 Vib (V=0)    4  0.107510D+01          0.031447          0.072410
 Electronic      0.100000D+01          0.000000          0.000000
 Translational   0.375250D+08          7.574320         17.440517
 Rotational      0.100517D+06          5.002240         11.518083
 ***** Axes restored to original set *****
 -------------------------------------------------------------------
 Center     Atomic                   Forces (Hartrees/Bohr)
 Number     Number              X              Y              Z
 -------------------------------------------------------------------
      1        7          -0.000282801   -0.000001975   -0.000163777
      2        8           0.000028394    0.000003146    0.000002039
      3        8           0.000036612    0.000000958   -0.000001447
      4        8           0.000165116   -0.000001938    0.000183945
      5       17           0.000052679   -0.000000190   -0.000020760
 -------------------------------------------------------------------
 Cartesian Forces:  Max     0.000282801 RMS     0.000107479
 -------------------------------------------------------------------
 Center     Atomic                Nonadiabatic Coup. (Bohr^-1)
 Number     Number              X              Y              Z
 -------------------------------------------------------------------
      1        7          -0.000641479   -0.626066680   -0.000386064
      2        8          -0.154374499    0.278514315   -0.135802168
      3        8           0.154850857    0.278070880    0.136049184
      4        8           0.000141435    0.045211260    0.000155980
      5       17          -0.000025159   -0.019311715   -0.000047736
 -------------------------------------------------------------------
 Cartesian Nonad. Coup.:  Max     0.626066680 RMS     0.205593874
 FormGI is forming the generalized inverse of G from B-inverse, IUseBI=4.

 GradGradGradGradGradGradGradGradGradGradGradGradGradGradGradGradGradGrad
 Berny optimization.
 Internal  Forces:  Max     0.000270896 RMS     0.000085541
 Search for a local minimum.
 Step number   1 out of a maximum of    2
 All quantities printed in internal units (Hartrees-Bohrs-Radians)
 Second derivative matrix not updated -- analytic derivatives used.
 The second derivative matrix:
                          R1        R2        R3        R4        A1
           R1           0.64950
           R2           0.15432   0.64966
           R3           0.05646   0.05643   0.37940
           R4          -0.00299  -0.00300   0.04111   0.30738
           A1           0.04027   0.04063  -0.03249  -0.00038   0.17060
           A2           0.00266  -0.03003   0.02241  -0.00068  -0.07693
           A3          -0.02615   0.01497   0.04389  -0.00269  -0.08399
           A4           0.01137   0.01138   0.06034   0.05934  -0.01099
           D1          -0.02000  -0.01231  -0.04285   0.00406   0.01999
           D2           0.01375   0.02823   0.01075  -0.00212   0.04536
           D3          -0.02337  -0.01862  -0.01077   0.00214  -0.04517
                          A2        A3        A4        D1        D2
           A2           0.13916
           A3          -0.08513   0.23086
           A4           0.00658   0.01157   0.33690
           D1          -0.04309  -0.01379  -0.00978   0.05690
           D2          -0.03813   0.02349   0.00132  -0.01357   0.02917
           D3           0.02285  -0.00426  -0.00130   0.01714  -0.02549
                          D3
           D3           0.02458
 ITU=  0
     Eigenvalues ---    0.00015   0.07685   0.23463   0.26205   0.27558
     Eigenvalues ---    0.32968   0.46398   0.50244   0.82875
 Angle between quadratic step and forces=  86.51 degrees.
 Linear search not attempted -- first point.
 Iteration  1 RMS(Cart)=  0.00576994 RMS(Int)=  0.00002397
 Iteration  2 RMS(Cart)=  0.00002016 RMS(Int)=  0.00000002
 Iteration  3 RMS(Cart)=  0.00000000 RMS(Int)=  0.00000002
 Variable       Old X    -DE/DX   Delta X   Delta X   Delta X     New X
                                 (Linear)    (Quad)   (Total)
    R1        2.33515  -0.00001   0.00000  -0.00026  -0.00026   2.33489
    R2        2.33512  -0.00002   0.00000   0.00008   0.00008   2.33520
    R3        2.55232   0.00027   0.00000   0.00083   0.00083   2.55315
    R4        3.12651   0.00006   0.00000   0.00008   0.00008   3.12659
    A1        1.91966   0.00004   0.00000   0.00023   0.00023   1.91990
    A2        2.02590  -0.00002   0.00000  -0.00092  -0.00092   2.02498
    A3        2.02574  -0.00002   0.00000   0.00049   0.00049   2.02623
    A4        1.94907   0.00002   0.00000  -0.00006  -0.00006   1.94901
    D1       -2.34427   0.00000   0.00000   0.00064   0.00064  -2.34363
    D2       -1.99220   0.00001   0.00000  -0.01196  -0.01196  -2.00415
    D3        1.99532  -0.00001   0.00000  -0.01186  -0.01186   1.98346
         Item               Value     Threshold  Converged?
 Maximum Force            0.000271     0.000450     YES
 RMS     Force            0.000086     0.000300     YES
 Maximum Displacement     0.010790     0.001800     NO 
 RMS     Displacement     0.005770     0.001200     NO 
 Predicted change in Energy=-1.461599D-07
                           ----------------------------
                           ! Non-Optimized Parameters !
                           ! (Angstroms and Degrees)  !
 --------------------------                            --------------------------
 ! Name  Definition              Value          Derivative Info.                !
 --------------------------------------------------------------------------------
 ! R1    R(1,2)                  1.2356         -DE/DX =    0.0                 !
 ! R2    R(1,3)                  1.2357         -DE/DX =    0.0                 !
 ! R3    R(1,4)                  1.3511         -DE/DX =    0.0003              !
 ! R4    R(4,5)                  1.6545         -DE/DX =    0.0001              !
 ! A1    A(2,1,3)              110.0019         -DE/DX =    0.0                 !
 ! A2    A(2,1,4)              116.023          -DE/DX =    0.0                 !
 ! A3    A(3,1,4)              116.0944         -DE/DX =    0.0                 !
 ! A4    A(1,4,5)              111.6702         -DE/DX =    0.0                 !
 ! D1    D(2,1,3,4)           -134.2803         -DE/DX =    0.0                 !
 ! D2    D(2,1,4,5)           -114.8295         -DE/DX =    0.0                 !
 ! D3    D(3,1,4,5)            113.6439         -DE/DX =    0.0                 !
 --------------------------------------------------------------------------------
 GradGradGradGradGradGradGradGradGradGradGradGradGradGradGradGradGradGrad

 -------------------------------------------------------------------
 Center     Atomic                Nonadiabatic Coup. (Bohr^-1)
 Number     Number              X              Y              Z
 -------------------------------------------------------------------
      1        7          -0.000641479   -0.626066680   -0.000386064
      2        8          -0.154374499    0.278514315   -0.135802168
      3        8           0.154850857    0.278070880    0.136049184
      4        8           0.000141435    0.045211260    0.000155980
      5       17          -0.000025159   -0.019311715   -0.000047736
 -------------------------------------------------------------------
 Cartesian Nonad. Coup.:  Max     0.626066680 RMS     0.205593874

 ----------------------------------------------------------------------

 Electric dipole moment (input orientation):
 (Debye = 10**-18 statcoulomb cm , SI units = C m)
                  (au)            (Debye)         (10**-30 SI)
   Tot        0.793437D+00      0.201672D+01      0.672704D+01
   x          0.786460D+00      0.199898D+01      0.666789D+01
   y         -0.999248D-04     -0.253983D-03     -0.847198D-03
   z         -0.104986D+00     -0.266849D+00     -0.890112D+00

 Dipole polarizability, Alpha (input orientation).
 (esu units = cm**3 , SI units = C**2 m**2 J**-1)
 Alpha(0;0):
               (au)            (10**-24 esu)      (10**-40 SI)
   iso        0.433679D+02      0.642646D+01      0.715040D+01
   aniso      0.264136D+02      0.391409D+01      0.435501D+01
   xx         0.480248D+02      0.711655D+01      0.791823D+01
   yx         0.235439D-01      0.348885D-02      0.388187D-02
   yy         0.556587D+02      0.824777D+01      0.917689D+01
   zx        -0.160225D+01     -0.237429D+00     -0.264175D+00
   zy         0.131991D-01      0.195590D-02      0.217623D-02
   zz         0.264201D+02      0.391505D+01      0.435608D+01

 ----------------------------------------------------------------------

 Dipole orientation:
     7         -0.46506378          0.00017096         -1.51552430
     8         -0.58596581         -1.91345088         -2.84832496
     8         -0.58870588          1.91194113         -2.85067371
     8          1.34697547          0.00281566          0.28192484
    17          0.12060305         -0.00076156          3.15786814

 Electric dipole moment (dipole orientation):
 (Debye = 10**-18 statcoulomb cm , SI units = C m)
                  (au)            (Debye)         (10**-30 SI)
   Tot        0.793437D+00      0.201672D+01      0.672704D+01
   x          0.000000D+00      0.000000D+00      0.000000D+00
   y          0.000000D+00      0.000000D+00      0.000000D+00
   z          0.793437D+00      0.201672D+01      0.672704D+01

 Dipole polarizability, Alpha (dipole orientation).
 (esu units = cm**3 , SI units = C**2 m**2 J**-1)
 Alpha(0;0):
               (au)            (10**-24 esu)      (10**-40 SI)
   iso        0.433679D+02      0.642646D+01      0.715040D+01
   aniso      0.264136D+02      0.391409D+01      0.435501D+01
   xx         0.263780D+02      0.390882D+01      0.434915D+01
   yx        -0.195885D-01     -0.290271D-02     -0.322971D-02
   yy         0.556587D+02      0.824777D+01      0.917689D+01
   zx         0.128744D+01      0.190779D+00      0.212270D+00
   zy        -0.204924D-01     -0.303666D-02     -0.337874D-02
   zz         0.480669D+02      0.712278D+01      0.792516D+01

 ----------------------------------------------------------------------
 1\1\GINC-GRA41\Freq\RCIS-FC\6-311++G(3df,3pd)\Cl1N1O3\ALREBEI\24-Feb-2
 020\0\\#N Geom=AllCheck Guess=TCheck SCRF=Check GenChk RCIS(FC,Read)/6
 -311++G(3df,3pd) Freq\\Title Card Required\\0,1\N,-0.8274930568,-0.000
 0165964,-0.1378202763\O,-1.5349332807,1.0127102259,-0.1080412056\O,-1.
 5365802845,-1.0116000229,-0.1090590394\O,0.242191442,-0.0014301886,0.6
 867811601\Cl,1.6648231799,0.0001995821,-0.1578546389\\Version=ES64L-G1
 6RevA.03\State=1-A\HF=-738.3201057\RMSD=6.680e-11\RMSF=1.075e-04\ZeroP
 oint=0.0159285\Thermal=0.0207084\Dipole=0.7864604,-0.0000999,-0.104986
 4\DipoleDeriv=1.1332529,-0.0004751,0.3111258,-0.0009439,0.5455595,0.00
 01019,0.6002949,-0.0000661,0.2988874,-0.368031,0.3019931,-0.0950785,0.
 0360462,-0.4026719,0.0955957,-0.0428967,0.0685127,-0.1542697,-0.368726
 9,-0.3022679,-0.095522,-0.0361178,-0.4022438,-0.0957679,-0.0430413,-0.
 0686846,-0.1543683,-0.7760872,0.0003001,0.0170841,0.0008023,0.1326438,
 0.000121,-0.4270074,0.0002097,-0.1297223,0.3795923,0.0004498,-0.137609
 3,0.0002132,0.1267125,-0.0000508,-0.0873494,0.0000284,0.139473\Polar=4
 8.0248492,0.0235439,55.658742,-1.6022472,0.0131991,26.4200524\PG=C01 [
 X(Cl1N1O3)]\NImag=0\\0.74789654,0.00016166,0.76138863,0.04804593,0.000
 15815,0.25553960,-0.26098449,0.18734520,0.00124805,0.25414187,0.256809
 23,-0.33659846,-0.02136871,-0.25625610,0.48496538,0.02595751,-0.045543
 77,-0.05245407,0.01632309,0.01093017,0.03477194,-0.26178264,-0.1875541
 8,0.00106609,0.05557847,-0.03346693,-0.00318030,0.25505492,-0.25707953
 ,-0.33603273,0.02108164,0.03314417,-0.15644077,0.00661780,0.25669294,0
 .48423941,0.02576803,0.04522207,-0.05235643,-0.00315216,-0.00678760,0.
 01280869,0.01657129,-0.01051251,0.03472592,-0.16647509,0.00008659,-0.0
 5207340,-0.04788280,0.03441914,-0.04037966,-0.04799222,-0.03427966,-0.
 04046721,0.45489959,0.00010902,-0.08745453,0.00016889,0.03212853,0.009
 62570,0.02638740,-0.03204955,0.00976694,-0.02631604,0.00001615,0.06398
 591,-0.09405358,0.00021521,-0.18182002,-0.01050934,0.01419581,0.008019
 54,-0.01052185,-0.01415515,0.00798123,0.00863433,-0.00046268,0.2795208
 4,-0.05865431,-0.00003927,0.00171333,-0.00085304,-0.00150535,0.0012793
 7,-0.00085852,0.00152207,0.00128005,-0.19254949,-0.00020415,0.10645045
 ,0.25291537,-0.00000039,-0.00130290,-0.00003997,0.00363820,-0.00155186
 ,0.00160840,-0.00362228,-0.00153285,-0.00160592,-0.00024222,0.00407599
 ,0.00020681,0.00022669,0.00031162,-0.00571790,-0.00005166,0.03109092,-
 0.00390964,0.00303034,-0.00314611,-0.00393522,-0.00303178,-0.00315941,
 0.12428595,0.00022242,-0.11370158,-0.11072319,-0.00016932,0.08891617\\
 0.00028280,0.00000198,0.00016378,-0.00002839,-0.00000315,-0.00000204,-
 0.00003661,-0.00000096,0.00000145,-0.00016512,0.00000194,-0.00018395,-
 0.00005268,0.00000019,0.00002076\\\@


 THE FIRST MORNING OF CREATION WROTE WHAT THE LAST DAWN OF
 RECKONING SHALL READ. -- OMAR KHAYYAM
 Job cpu time:       0 days  0 hours 12 minutes 58.2 seconds.
 Elapsed time:       0 days  0 hours  6 minutes 36.1 seconds.
 File lengths (MBytes):  RWF=    142 Int=      0 D2E=      0 Chk=      8 Scr=      1
 Normal termination of Gaussian 16 at Mon Feb 24 02:30:57 2020.
