 Entering Gaussian System, Link 0=g16
 Initial command:
 /opt/software/gaussian/g16.a03/l1.exe "/localscratch/alrebei.28162812.0/Gau-32716.inp" -scrdir="/localscratch/alrebei.28162812.0/"
 Entering Link 1 = /opt/software/gaussian/g16.a03/l1.exe PID=     32717.
  
 Copyright (c) 1988,1990,1992,1993,1995,1998,2003,2009,2016,
            Gaussian, Inc.  All Rights Reserved.
  
 This is part of the Gaussian(R) 16 program.  It is based on
 the Gaussian(R) 09 system (copyright 2009, Gaussian, Inc.),
 the Gaussian(R) 03 system (copyright 2003, Gaussian, Inc.),
 the Gaussian(R) 98 system (copyright 1998, Gaussian, Inc.),
 the Gaussian(R) 94 system (copyright 1995, Gaussian, Inc.),
 the Gaussian 92(TM) system (copyright 1992, Gaussian, Inc.),
 the Gaussian 90(TM) system (copyright 1990, Gaussian, Inc.),
 the Gaussian 88(TM) system (copyright 1988, Gaussian, Inc.),
 the Gaussian 86(TM) system (copyright 1986, Carnegie Mellon
 University), and the Gaussian 82(TM) system (copyright 1983,
 Carnegie Mellon University). Gaussian is a federally registered
 trademark of Gaussian, Inc.
  
 This software contains proprietary and confidential information,
 including trade secrets, belonging to Gaussian, Inc.
  
 This software is provided under written license and may be
 used, copied, transmitted, or stored only in accord with that
 written license.
  
 The following legend is applicable only to US Government
 contracts under FAR:
  
                    RESTRICTED RIGHTS LEGEND
  
 Use, reproduction and disclosure by the US Government is
 subject to restrictions as set forth in subparagraphs (a)
 and (c) of the Commercial Computer Software - Restricted
 Rights clause in FAR 52.227-19.
  
 Gaussian, Inc.
 340 Quinnipiac St., Bldg. 40, Wallingford CT 06492
  
  
 ---------------------------------------------------------------
 Warning -- This program may not be used in any manner that
 competes with the business of Gaussian, Inc. or will provide
 assistance to any competitor of Gaussian, Inc.  The licensee
 of this program is prohibited from giving any competitor of
 Gaussian, Inc. access to this program.  By using this program,
 the user acknowledges that Gaussian, Inc. is engaged in the
 business of creating and licensing software in the field of
 computational chemistry and represents and warrants to the
 licensee that it is not a competitor of Gaussian, Inc. and that
 it will not use this program in any manner prohibited above.
 ---------------------------------------------------------------
  

 Cite this work as:
 Gaussian 16, Revision A.03,
 M. J. Frisch, G. W. Trucks, H. B. Schlegel, G. E. Scuseria, 
 M. A. Robb, J. R. Cheeseman, G. Scalmani, V. Barone, 
 G. A. Petersson, H. Nakatsuji, X. Li, M. Caricato, A. V. Marenich, 
 J. Bloino, B. G. Janesko, R. Gomperts, B. Mennucci, H. P. Hratchian, 
 J. V. Ortiz, A. F. Izmaylov, J. L. Sonnenberg, D. Williams-Young, 
 F. Ding, F. Lipparini, F. Egidi, J. Goings, B. Peng, A. Petrone, 
 T. Henderson, D. Ranasinghe, V. G. Zakrzewski, J. Gao, N. Rega, 
 G. Zheng, W. Liang, M. Hada, M. Ehara, K. Toyota, R. Fukuda, 
 J. Hasegawa, M. Ishida, T. Nakajima, Y. Honda, O. Kitao, H. Nakai, 
 T. Vreven, K. Throssell, J. A. Montgomery, Jr., J. E. Peralta, 
 F. Ogliaro, M. J. Bearpark, J. J. Heyd, E. N. Brothers, K. N. Kudin, 
 V. N. Staroverov, T. A. Keith, R. Kobayashi, J. Normand, 
 K. Raghavachari, A. P. Rendell, J. C. Burant, S. S. Iyengar, 
 J. Tomasi, M. Cossi, J. M. Millam, M. Klene, C. Adamo, R. Cammi, 
 J. W. Ochterski, R. L. Martin, K. Morokuma, O. Farkas, 
 J. B. Foresman, and D. J. Fox, Gaussian, Inc., Wallingford CT, 2016.
 
 ******************************************
 Gaussian 16:  ES64L-G16RevA.03 25-Dec-2016
                19-Feb-2020 
 ******************************************
 %nprocshared=2
 Will use up to    2 processors via shared memory.
 %mem=2GB
 ----------------------------------------
 # opt freq rcis/6-311++g(3df,3pd) scf=qc
 ----------------------------------------
 1/18=20,19=15,38=1/1,3;
 2/9=110,12=2,17=6,18=5,40=1/2;
 3/5=4,6=6,7=1616,11=1,25=1,30=1,71=1,116=1/1,2,3,8;
 4//1;
 5/5=2,8=3,38=5/8;
 8/6=1,10=2/1;
 9/15=2,42=1/14;
 10/5=4/2;
 6/7=2,8=2,9=2,10=2/1;
 7/12=6,13=5/1,2,3,16;
 1/18=20,19=15/3(2);
 2/9=110/2;
 99//99;
 2/9=110/2;
 3/5=4,6=6,7=1616,11=1,25=1,30=1,71=1,116=1/1,2,3,8;
 4/5=5,16=3,69=1/1;
 5/5=2,8=3,38=5/8;
 8/6=1,10=2/1;
 9/15=2,42=1,49=4/14;
 10/5=4/2;
 7/12=6,13=5/1,2,3,16;
 1/18=20,19=15/3(-8);
 2/9=110/2;
 6/7=2,8=2,9=2,10=2/1;
 99//99;
 -------------------
 Title Card Required
 -------------------
 Symbolic Z-matrix:
 Charge =  0 Multiplicity = 1
 N                    -0.23777   1.2515    0.41196 
 O                    -2.62069  -0.96243  -0.07107 
 O                    -0.15574   1.44144  -0.71314 
 O                     0.39819   0.14851   0.88824 
 Cl                    1.21707  -0.81063  -0.21858 
 
 Add virtual bond connecting atoms O2         and N1         Dist= 6.21D+00.
 Add virtual bond connecting atoms O2         and O4         Dist= 6.34D+00.

 GradGradGradGradGradGradGradGradGradGradGradGradGradGradGradGradGradGrad
 Berny optimization.
 Initialization pass.
                           ----------------------------
                           !    Initial Parameters    !
                           ! (Angstroms and Degrees)  !
 --------------------------                            --------------------------
 ! Name  Definition              Value          Derivative Info.                !
 --------------------------------------------------------------------------------
 ! R1    R(1,2)                  3.2883         estimate D2E/DX2                !
 ! R2    R(1,3)                  1.144          estimate D2E/DX2                !
 ! R3    R(1,4)                  1.3594         estimate D2E/DX2                !
 ! R4    R(2,4)                  3.3568         estimate D2E/DX2                !
 ! R5    R(4,5)                  1.678          estimate D2E/DX2                !
 ! A1    A(2,1,3)               91.1049         estimate D2E/DX2                !
 ! A2    A(3,1,4)              116.4728         estimate D2E/DX2                !
 ! A3    A(1,4,5)              117.4522         estimate D2E/DX2                !
 ! A4    A(2,4,5)               93.5092         estimate D2E/DX2                !
 ! D1    D(2,1,3,4)            -80.5331         estimate D2E/DX2                !
 ! D2    D(3,1,4,5)             -0.4277         estimate D2E/DX2                !
 ! D3    D(5,2,4,1)            117.4728         estimate D2E/DX2                !
 --------------------------------------------------------------------------------
 Trust Radius=3.00D-01 FncErr=1.00D-07 GrdErr=1.00D-07 EigMax=2.50D+02 EigMin=1.00D-04
 Number of steps in this run=     22 maximum allowed number of steps=    100.
 GradGradGradGradGradGradGradGradGradGradGradGradGradGradGradGradGradGrad

                          Input orientation:                          
 ---------------------------------------------------------------------
 Center     Atomic      Atomic             Coordinates (Angstroms)
 Number     Number       Type             X           Y           Z
 ---------------------------------------------------------------------
      1          7           0       -0.237765    1.251499    0.411955
      2          8           0       -2.620690   -0.962431   -0.071072
      3          8           0       -0.155738    1.441444   -0.713142
      4          8           0        0.398194    0.148513    0.888236
      5         17           0        1.217072   -0.810630   -0.218579
 ---------------------------------------------------------------------
                    Distance matrix (angstroms):
                    1          2          3          4          5
     1  N    0.000000
     2  O    3.288333   0.000000
     3  O    1.143963   3.502407   0.000000
     4  O    1.359362   3.356803   2.131413   0.000000
     5  Cl   2.601250   3.843595   2.683475   1.677962   0.000000
 Stoichiometry    ClNO3
 Framework group  C1[X(ClNO3)]
 Deg. of freedom     9
 Full point group                 C1      NOp   1
 Largest Abelian subgroup         C1      NOp   1
 Largest concise Abelian subgroup C1      NOp   1
                         Standard orientation:                         
 ---------------------------------------------------------------------
 Center     Atomic      Atomic             Coordinates (Angstroms)
 Number     Number       Type             X           Y           Z
 ---------------------------------------------------------------------
      1          7           0       -0.237765    1.251499    0.411955
      2          8           0       -2.620690   -0.962430   -0.071072
      3          8           0       -0.155738    1.441444   -0.713142
      4          8           0        0.398194    0.148513    0.888236
      5         17           0        1.217072   -0.810630   -0.218579
 ---------------------------------------------------------------------
 Rotational constants (GHZ):           4.2765328           2.6564464           1.9538335
 Standard basis: 6-311++G(3df,3pd) (5D, 7F)
 There are   233 symmetry adapted cartesian basis functions of A   symmetry.
 There are   203 symmetry adapted basis functions of A   symmetry.
   203 basis functions,   307 primitive gaussians,   233 cartesian basis functions
    24 alpha electrons       24 beta electrons
       nuclear repulsion energy       205.0065978378 Hartrees.
 NAtoms=    5 NActive=    5 NUniq=    5 SFac= 1.00D+00 NAtFMM=   60 NAOKFM=F Big=F
 Integral buffers will be    131072 words long.
 Raffenetti 1 integral format.
 Two-electron integral symmetry is turned on.
 One-electron integrals computed using PRISM.
 NBasis=   203 RedAO= T EigKep=  1.98D-04  NBF=   203
 NBsUse=   203 1.00D-06 EigRej= -1.00D+00 NBFU=   203
 ExpMin= 4.83D-02 ExpMax= 1.06D+05 ExpMxC= 3.62D+03 IAcc=3 IRadAn=         5 AccDes= 0.00D+00
 Harris functional with IExCor=  205 and IRadAn=       5 diagonalized for initial guess.
 HarFok:  IExCor=  205 AccDes= 0.00D+00 IRadAn=         5 IDoV= 1 UseB2=F ITyADJ=14
 ICtDFT=  3500011 ScaDFX=  1.000000  1.000000  1.000000  1.000000
 FoFCou: FMM=F IPFlag=           0 FMFlag=      100000 FMFlg1=           0
         NFxFlg=           0 DoJE=T BraDBF=F KetDBF=T FulRan=T
         wScrn=  0.000000 ICntrl=       500 IOpCl=  0 I1Cent=   200000004 NGrid=           0
         NMat0=    1 NMatS0=      1 NMatT0=    0 NMatD0=    1 NMtDS0=    0 NMtDT0=    0
 Petite list used in FoFCou.
 Keep R1 ints in memory in canonical form, NReq=220787261.
 Gradient too large for Newton-Raphson -- use scaled steepest descent instead.
     Minimum is close to point  3 DX=  1.01D-02 DF= -3.79D-04 DXR=  2.46D-02 DFR=  6.29D-04 which will be used.
 Gradient too large for Newton-Raphson -- use scaled steepest descent instead.
     Accept linear search using points  3 and  4.
 Gradient too large for Newton-Raphson -- use scaled steepest descent instead.
     Accept linear search using points  1 and  2.
 Gradient too large for Newton-Raphson -- use scaled steepest descent instead.
     Accept linear search using points  3 and  4.
 Gradient too large for Newton-Raphson -- use scaled steepest descent instead.
     Accept linear search using points  2 and  3.
 Gradient too large for Newton-Raphson -- use scaled steepest descent instead.
     Minimum is close to point  3 DX=  6.51D-04 DF= -1.79D-07 DXR=  2.16D-03 DFR=  4.69D-06 which will be used.
 Gradient too large for Newton-Raphson -- use scaled steepest descent instead.
     Minimum is close to point  6 DX=  7.73D-02 DF= -1.11D-04 DXR=  2.36D-02 DFR=  7.67D-04 which will be used.
 Gradient too large for Newton-Raphson -- use scaled steepest descent instead.
 Gradient too large for Newton-Raphson -- use scaled steepest descent instead.
     Accept linear search using points  1 and  2.
 Gradient too large for Newton-Raphson -- use scaled steepest descent instead.
     Accept linear search using points  2 and  3.
 Gradient too large for Newton-Raphson -- use scaled steepest descent instead.
     Accept linear search using points  1 and  2.
     Minimum is close to point  2 DX= -4.14D-03 DF= -2.25D-07 DXR=  5.20D-03 DFR=  1.59D-05 which will be used.
 Gradient too large for Newton-Raphson -- use scaled steepest descent instead.
     Accept linear search using points  1 and  2.
 Gradient too large for Newton-Raphson -- use scaled steepest descent instead.
 Gradient too large for Newton-Raphson -- use scaled steepest descent instead.
     Accept linear search using points  1 and  2.
 Gradient too large for Newton-Raphson -- use scaled steepest descent instead.
     Accept linear search using points  2 and  3.
 Gradient too large for Newton-Raphson -- use scaled steepest descent instead.
     Accept linear search using points  1 and  2.
 LinEq1:  Iter=  0 NonCon=     1 RMS=6.18D-05 Max=2.54D-03 NDo=     1
 AX will form     1 AO Fock derivatives at one time.
 LinEq1:  Iter=  1 NonCon=     1 RMS=2.19D-05 Max=5.95D-04 NDo=     1
 LinEq1:  Iter=  2 NonCon=     1 RMS=1.18D-05 Max=5.14D-04 NDo=     1
 LinEq1:  Iter=  3 NonCon=     1 RMS=3.18D-06 Max=1.57D-04 NDo=     1
 LinEq1:  Iter=  4 NonCon=     1 RMS=1.07D-06 Max=2.08D-05 NDo=     1
 LinEq1:  Iter=  5 NonCon=     1 RMS=4.65D-07 Max=6.97D-06 NDo=     1
 LinEq1:  Iter=  6 NonCon=     1 RMS=1.97D-07 Max=4.51D-06 NDo=     1
 LinEq1:  Iter=  7 NonCon=     1 RMS=8.18D-08 Max=1.81D-06 NDo=     1
 LinEq1:  Iter=  8 NonCon=     1 RMS=2.37D-08 Max=7.01D-07 NDo=     1
 LinEq1:  Iter=  9 NonCon=     1 RMS=1.01D-08 Max=2.65D-07 NDo=     1
 LinEq1:  Iter= 10 NonCon=     0 RMS=2.47D-09 Max=3.61D-08 NDo=     1
 Linear equations converged to 9.269D-09 9.269D-08 after    10 iterations.
 LinEq1:  Iter=  0 NonCon=     1 RMS=4.17D-05 Max=1.58D-03 NDo=     1
 LinEq1:  Iter=  1 NonCon=     1 RMS=1.41D-05 Max=2.97D-04 NDo=     1
 LinEq1:  Iter=  2 NonCon=     1 RMS=8.87D-06 Max=1.82D-04 NDo=     1
 LinEq1:  Iter=  3 NonCon=     1 RMS=3.05D-06 Max=1.24D-04 NDo=     1
 LinEq1:  Iter=  4 NonCon=     1 RMS=1.67D-06 Max=5.93D-05 NDo=     1
 LinEq1:  Iter=  5 NonCon=     1 RMS=7.12D-07 Max=2.18D-05 NDo=     1
 LinEq1:  Iter=  6 NonCon=     1 RMS=2.40D-07 Max=6.23D-06 NDo=     1
 LinEq1:  Iter=  7 NonCon=     1 RMS=1.02D-07 Max=2.01D-06 NDo=     1
 LinEq1:  Iter=  8 NonCon=     1 RMS=3.85D-08 Max=6.69D-07 NDo=     1
 LinEq1:  Iter=  9 NonCon=     1 RMS=1.21D-08 Max=3.49D-07 NDo=     1
 LinEq1:  Iter= 10 NonCon=     1 RMS=4.25D-09 Max=1.36D-07 NDo=     1
 LinEq1:  Iter= 11 NonCon=     0 RMS=1.22D-09 Max=1.96D-08 NDo=     1
 Linear equations converged to 9.269D-09 9.269D-08 after    11 iterations.
 LinEq1:  Iter=  0 NonCon=     1 RMS=1.20D-05 Max=4.44D-04 NDo=     1
 LinEq1:  Iter=  1 NonCon=     1 RMS=4.25D-06 Max=1.14D-04 NDo=     1
 LinEq1:  Iter=  2 NonCon=     1 RMS=3.01D-06 Max=6.82D-05 NDo=     1
 LinEq1:  Iter=  3 NonCon=     1 RMS=7.46D-07 Max=2.33D-05 NDo=     1
 LinEq1:  Iter=  4 NonCon=     1 RMS=3.37D-07 Max=1.02D-05 NDo=     1
 LinEq1:  Iter=  5 NonCon=     1 RMS=1.33D-07 Max=3.22D-06 NDo=     1
 LinEq1:  Iter=  6 NonCon=     1 RMS=5.29D-08 Max=1.28D-06 NDo=     1
 LinEq1:  Iter=  7 NonCon=     1 RMS=2.60D-08 Max=6.12D-07 NDo=     1
 LinEq1:  Iter=  8 NonCon=     1 RMS=1.03D-08 Max=2.23D-07 NDo=     1
 LinEq1:  Iter=  9 NonCon=     0 RMS=3.70D-09 Max=8.41D-08 NDo=     1
 Linear equations converged to 9.269D-09 9.269D-08 after     9 iterations.
     Accept linear search using points  1 and  2.
     Minimum is close to point  2 DX= -4.22D-02 DF= -1.42D-08 DXR=  4.40D-02 DFR=  1.80D-03 which will be used.
 LinEq1:  Iter=  0 NonCon=     1 RMS=9.09D-06 Max=2.03D-04 NDo=     1
 LinEq1:  Iter=  1 NonCon=     1 RMS=4.67D-06 Max=9.40D-05 NDo=     1
 LinEq1:  Iter=  2 NonCon=     1 RMS=1.79D-06 Max=4.27D-05 NDo=     1
 LinEq1:  Iter=  3 NonCon=     1 RMS=8.50D-07 Max=1.78D-05 NDo=     1
 LinEq1:  Iter=  4 NonCon=     1 RMS=4.39D-07 Max=1.48D-05 NDo=     1
 LinEq1:  Iter=  5 NonCon=     1 RMS=1.97D-07 Max=5.86D-06 NDo=     1
 LinEq1:  Iter=  6 NonCon=     1 RMS=1.23D-07 Max=2.69D-06 NDo=     1
 LinEq1:  Iter=  7 NonCon=     1 RMS=6.59D-08 Max=9.41D-07 NDo=     1
 LinEq1:  Iter=  8 NonCon=     1 RMS=1.58D-08 Max=4.55D-07 NDo=     1
 LinEq1:  Iter=  9 NonCon=     1 RMS=4.76D-09 Max=1.44D-07 NDo=     1
 LinEq1:  Iter= 10 NonCon=     0 RMS=1.29D-09 Max=2.26D-08 NDo=     1
 Linear equations converged to 9.269D-09 9.269D-08 after    10 iterations.
 Incorrect curvature in search direction -- initial direction reversed.
 LinEq1:  Iter=  0 NonCon=     1 RMS=1.46D-05 Max=3.08D-04 NDo=     1
 LinEq1:  Iter=  1 NonCon=     1 RMS=6.32D-06 Max=1.32D-04 NDo=     1
 LinEq1:  Iter=  2 NonCon=     1 RMS=2.42D-06 Max=4.69D-05 NDo=     1
 LinEq1:  Iter=  3 NonCon=     1 RMS=1.22D-06 Max=2.54D-05 NDo=     1
 LinEq1:  Iter=  4 NonCon=     1 RMS=5.93D-07 Max=2.12D-05 NDo=     1
 LinEq1:  Iter=  5 NonCon=     1 RMS=3.65D-07 Max=1.15D-05 NDo=     1
 LinEq1:  Iter=  6 NonCon=     1 RMS=1.78D-07 Max=2.89D-06 NDo=     1
 LinEq1:  Iter=  7 NonCon=     1 RMS=8.75D-08 Max=1.47D-06 NDo=     1
 LinEq1:  Iter=  8 NonCon=     1 RMS=2.60D-08 Max=8.14D-07 NDo=     1
 LinEq1:  Iter=  9 NonCon=     1 RMS=9.78D-09 Max=2.17D-07 NDo=     1
 LinEq1:  Iter= 10 NonCon=     0 RMS=2.27D-09 Max=5.34D-08 NDo=     1
 Linear equations converged to 9.269D-09 9.269D-08 after    10 iterations.
 Incorrect curvature in search direction -- initial direction reversed.
 LinEq1:  Iter=  0 NonCon=     1 RMS=2.10D-05 Max=4.72D-04 NDo=     1
 LinEq1:  Iter=  1 NonCon=     1 RMS=7.70D-06 Max=1.81D-04 NDo=     1
 LinEq1:  Iter=  2 NonCon=     1 RMS=3.04D-06 Max=6.95D-05 NDo=     1
 LinEq1:  Iter=  3 NonCon=     1 RMS=1.49D-06 Max=3.03D-05 NDo=     1
 LinEq1:  Iter=  4 NonCon=     1 RMS=7.64D-07 Max=2.81D-05 NDo=     1
 LinEq1:  Iter=  5 NonCon=     1 RMS=5.11D-07 Max=1.70D-05 NDo=     1
 LinEq1:  Iter=  6 NonCon=     1 RMS=1.87D-07 Max=3.00D-06 NDo=     1
 LinEq1:  Iter=  7 NonCon=     1 RMS=1.01D-07 Max=1.82D-06 NDo=     1
 LinEq1:  Iter=  8 NonCon=     1 RMS=1.98D-08 Max=5.70D-07 NDo=     1
 LinEq1:  Iter=  9 NonCon=     1 RMS=6.17D-09 Max=1.73D-07 NDo=     1
 LinEq1:  Iter= 10 NonCon=     0 RMS=1.95D-09 Max=4.76D-08 NDo=     1
 Linear equations converged to 9.269D-09 9.269D-08 after    10 iterations.
 Incorrect curvature in search direction -- initial direction reversed.
 LinEq1:  Iter=  0 NonCon=     1 RMS=2.81D-05 Max=5.47D-04 NDo=     1
 LinEq1:  Iter=  1 NonCon=     1 RMS=9.48D-06 Max=1.76D-04 NDo=     1
 LinEq1:  Iter=  2 NonCon=     1 RMS=4.19D-06 Max=9.29D-05 NDo=     1
 LinEq1:  Iter=  3 NonCon=     1 RMS=1.92D-06 Max=3.87D-05 NDo=     1
 LinEq1:  Iter=  4 NonCon=     1 RMS=1.05D-06 Max=3.38D-05 NDo=     1
 LinEq1:  Iter=  5 NonCon=     1 RMS=6.60D-07 Max=2.12D-05 NDo=     1
 LinEq1:  Iter=  6 NonCon=     1 RMS=2.61D-07 Max=4.55D-06 NDo=     1
 LinEq1:  Iter=  7 NonCon=     1 RMS=1.30D-07 Max=2.70D-06 NDo=     1
 LinEq1:  Iter=  8 NonCon=     1 RMS=5.76D-08 Max=1.37D-06 NDo=     1
 LinEq1:  Iter=  9 NonCon=     1 RMS=1.55D-08 Max=3.53D-07 NDo=     1
 LinEq1:  Iter= 10 NonCon=     0 RMS=4.29D-09 Max=7.35D-08 NDo=     1
 Linear equations converged to 9.269D-09 9.269D-08 after    10 iterations.
     Accept linear search using points  1 and  2.
 LinEq1:  Iter=  0 NonCon=     1 RMS=3.00D-05 Max=5.80D-04 NDo=     1
 LinEq1:  Iter=  1 NonCon=     1 RMS=9.43D-06 Max=2.60D-04 NDo=     1
 LinEq1:  Iter=  2 NonCon=     1 RMS=3.70D-06 Max=6.85D-05 NDo=     1
 LinEq1:  Iter=  3 NonCon=     1 RMS=2.24D-06 Max=5.86D-05 NDo=     1
 LinEq1:  Iter=  4 NonCon=     1 RMS=1.20D-06 Max=4.04D-05 NDo=     1
 LinEq1:  Iter=  5 NonCon=     1 RMS=6.09D-07 Max=1.43D-05 NDo=     1
 LinEq1:  Iter=  6 NonCon=     1 RMS=2.70D-07 Max=6.66D-06 NDo=     1
 LinEq1:  Iter=  7 NonCon=     1 RMS=1.25D-07 Max=2.56D-06 NDo=     1
 LinEq1:  Iter=  8 NonCon=     1 RMS=4.69D-08 Max=1.03D-06 NDo=     1
 LinEq1:  Iter=  9 NonCon=     1 RMS=1.64D-08 Max=3.87D-07 NDo=     1
 LinEq1:  Iter= 10 NonCon=     1 RMS=5.83D-09 Max=1.57D-07 NDo=     1
 LinEq1:  Iter= 11 NonCon=     0 RMS=1.42D-09 Max=2.68D-08 NDo=     1
 Linear equations converged to 9.269D-09 9.269D-08 after    11 iterations.
     Accept linear search using points  1 and  2.
 LinEq1:  Iter=  0 NonCon=     1 RMS=2.04D-05 Max=7.09D-04 NDo=     1
 LinEq1:  Iter=  1 NonCon=     1 RMS=4.44D-06 Max=1.36D-04 NDo=     1
 LinEq1:  Iter=  2 NonCon=     1 RMS=2.14D-06 Max=5.76D-05 NDo=     1
 LinEq1:  Iter=  3 NonCon=     1 RMS=9.76D-07 Max=2.84D-05 NDo=     1
 LinEq1:  Iter=  4 NonCon=     1 RMS=6.81D-07 Max=1.53D-05 NDo=     1
 LinEq1:  Iter=  5 NonCon=     1 RMS=2.97D-07 Max=5.50D-06 NDo=     1
 LinEq1:  Iter=  6 NonCon=     1 RMS=8.69D-08 Max=1.43D-06 NDo=     1
 LinEq1:  Iter=  7 NonCon=     1 RMS=3.55D-08 Max=8.19D-07 NDo=     1
 LinEq1:  Iter=  8 NonCon=     1 RMS=1.61D-08 Max=4.61D-07 NDo=     1
 LinEq1:  Iter=  9 NonCon=     1 RMS=5.12D-09 Max=1.39D-07 NDo=     1
 LinEq1:  Iter= 10 NonCon=     0 RMS=1.02D-09 Max=1.60D-08 NDo=     1
 Linear equations converged to 9.269D-09 9.269D-08 after    10 iterations.
     Accept linear search using points  2 and  3.
 LinEq1:  Iter=  0 NonCon=     1 RMS=1.51D-05 Max=3.71D-04 NDo=     1
 LinEq1:  Iter=  1 NonCon=     1 RMS=3.76D-06 Max=8.09D-05 NDo=     1
 LinEq1:  Iter=  2 NonCon=     1 RMS=1.91D-06 Max=7.01D-05 NDo=     1
 LinEq1:  Iter=  3 NonCon=     1 RMS=1.05D-06 Max=2.56D-05 NDo=     1
 LinEq1:  Iter=  4 NonCon=     1 RMS=6.12D-07 Max=9.67D-06 NDo=     1
 LinEq1:  Iter=  5 NonCon=     1 RMS=1.95D-07 Max=5.12D-06 NDo=     1
 LinEq1:  Iter=  6 NonCon=     1 RMS=8.88D-08 Max=2.04D-06 NDo=     1
 LinEq1:  Iter=  7 NonCon=     1 RMS=2.55D-08 Max=5.75D-07 NDo=     1
 LinEq1:  Iter=  8 NonCon=     1 RMS=1.05D-08 Max=2.04D-07 NDo=     1
 LinEq1:  Iter=  9 NonCon=     1 RMS=5.01D-09 Max=9.85D-08 NDo=     1
 LinEq1:  Iter= 10 NonCon=     0 RMS=1.62D-09 Max=2.52D-08 NDo=     1
 Linear equations converged to 9.269D-09 9.269D-08 after    10 iterations.
     Accept linear search using points  1 and  2.
 LinEq1:  Iter=  0 NonCon=     1 RMS=1.09D-05 Max=3.58D-04 NDo=     1
 LinEq1:  Iter=  1 NonCon=     1 RMS=2.18D-06 Max=6.10D-05 NDo=     1
 LinEq1:  Iter=  2 NonCon=     1 RMS=1.14D-06 Max=3.07D-05 NDo=     1
 LinEq1:  Iter=  3 NonCon=     1 RMS=5.76D-07 Max=1.13D-05 NDo=     1
 LinEq1:  Iter=  4 NonCon=     1 RMS=3.24D-07 Max=8.82D-06 NDo=     1
 LinEq1:  Iter=  5 NonCon=     1 RMS=1.23D-07 Max=2.37D-06 NDo=     1
 LinEq1:  Iter=  6 NonCon=     1 RMS=6.31D-08 Max=1.48D-06 NDo=     1
 LinEq1:  Iter=  7 NonCon=     1 RMS=2.24D-08 Max=5.89D-07 NDo=     1
 LinEq1:  Iter=  8 NonCon=     1 RMS=9.60D-09 Max=2.22D-07 NDo=     1
 LinEq1:  Iter=  9 NonCon=     0 RMS=2.97D-09 Max=6.92D-08 NDo=     1
 Linear equations converged to 9.269D-09 9.269D-08 after     9 iterations.
     Minimum is close to point  2 DX=  4.98D-02 DF= -4.30D-08 DXR=  4.75D-02 DFR=  2.26D-03 which will be used.
 LinEq1:  Iter=  0 NonCon=     1 RMS=9.67D-06 Max=1.82D-04 NDo=     1
 LinEq1:  Iter=  1 NonCon=     1 RMS=3.61D-06 Max=7.74D-05 NDo=     1
 LinEq1:  Iter=  2 NonCon=     1 RMS=1.62D-06 Max=4.12D-05 NDo=     1
 LinEq1:  Iter=  3 NonCon=     1 RMS=6.73D-07 Max=1.96D-05 NDo=     1
 LinEq1:  Iter=  4 NonCon=     1 RMS=4.77D-07 Max=1.24D-05 NDo=     1
 LinEq1:  Iter=  5 NonCon=     1 RMS=2.33D-07 Max=5.30D-06 NDo=     1
 LinEq1:  Iter=  6 NonCon=     1 RMS=9.53D-08 Max=1.34D-06 NDo=     1
 LinEq1:  Iter=  7 NonCon=     1 RMS=3.77D-08 Max=8.17D-07 NDo=     1
 LinEq1:  Iter=  8 NonCon=     1 RMS=1.81D-08 Max=4.62D-07 NDo=     1
 LinEq1:  Iter=  9 NonCon=     1 RMS=5.70D-09 Max=1.10D-07 NDo=     1
 LinEq1:  Iter= 10 NonCon=     0 RMS=1.42D-09 Max=2.60D-08 NDo=     1
 Linear equations converged to 9.269D-09 9.269D-08 after    10 iterations.
     Minimum is close to point  2 DX= -2.50D-02 DF= -7.75D-09 DXR=  2.57D-02 DFR=  6.60D-04 which will be used.
 LinEq1:  Iter=  0 NonCon=     1 RMS=7.71D-06 Max=1.24D-04 NDo=     1
 LinEq1:  Iter=  1 NonCon=     1 RMS=2.21D-06 Max=3.59D-05 NDo=     1
 LinEq1:  Iter=  2 NonCon=     1 RMS=8.64D-07 Max=2.72D-05 NDo=     1
 LinEq1:  Iter=  3 NonCon=     1 RMS=4.21D-07 Max=1.05D-05 NDo=     1
 LinEq1:  Iter=  4 NonCon=     1 RMS=2.27D-07 Max=3.63D-06 NDo=     1
 LinEq1:  Iter=  5 NonCon=     1 RMS=8.81D-08 Max=1.64D-06 NDo=     1
 LinEq1:  Iter=  6 NonCon=     1 RMS=3.82D-08 Max=7.46D-07 NDo=     1
 LinEq1:  Iter=  7 NonCon=     1 RMS=2.12D-08 Max=3.58D-07 NDo=     1
 LinEq1:  Iter=  8 NonCon=     1 RMS=7.40D-09 Max=1.38D-07 NDo=     1
 LinEq1:  Iter=  9 NonCon=     0 RMS=2.28D-09 Max=7.17D-08 NDo=     1
 Linear equations converged to 9.269D-09 9.269D-08 after     9 iterations.
     Accept linear search using points  1 and  2.
 LinEq1:  Iter=  0 NonCon=     1 RMS=5.33D-06 Max=1.41D-04 NDo=     1
 LinEq1:  Iter=  1 NonCon=     1 RMS=2.17D-06 Max=7.18D-05 NDo=     1
 LinEq1:  Iter=  2 NonCon=     1 RMS=9.34D-07 Max=1.95D-05 NDo=     1
 LinEq1:  Iter=  3 NonCon=     1 RMS=4.47D-07 Max=1.05D-05 NDo=     1
 LinEq1:  Iter=  4 NonCon=     1 RMS=3.04D-07 Max=8.74D-06 NDo=     1
 LinEq1:  Iter=  5 NonCon=     1 RMS=1.38D-07 Max=2.61D-06 NDo=     1
 LinEq1:  Iter=  6 NonCon=     1 RMS=6.12D-08 Max=6.99D-07 NDo=     1
 LinEq1:  Iter=  7 NonCon=     1 RMS=3.02D-08 Max=7.88D-07 NDo=     1
 LinEq1:  Iter=  8 NonCon=     1 RMS=9.98D-09 Max=1.74D-07 NDo=     1
 LinEq1:  Iter=  9 NonCon=     1 RMS=3.43D-09 Max=1.02D-07 NDo=     1
 LinEq1:  Iter= 10 NonCon=     0 RMS=1.05D-09 Max=2.62D-08 NDo=     1
 Linear equations converged to 9.269D-09 9.269D-08 after    10 iterations.
     Accept linear search using points  1 and  2.
     Minimum is close to point  2 DX= -6.18D-02 DF= -1.52D-08 DXR=  6.59D-02 DFR=  4.30D-03 which will be used.
 LinEq1:  Iter=  0 NonCon=     1 RMS=3.82D-06 Max=9.06D-05 NDo=     1
 LinEq1:  Iter=  1 NonCon=     1 RMS=1.41D-06 Max=3.67D-05 NDo=     1
 LinEq1:  Iter=  2 NonCon=     1 RMS=5.17D-07 Max=1.20D-05 NDo=     1
 LinEq1:  Iter=  3 NonCon=     1 RMS=2.24D-07 Max=7.23D-06 NDo=     1
 LinEq1:  Iter=  4 NonCon=     1 RMS=1.35D-07 Max=2.44D-06 NDo=     1
 LinEq1:  Iter=  5 NonCon=     1 RMS=6.26D-08 Max=1.07D-06 NDo=     1
 LinEq1:  Iter=  6 NonCon=     1 RMS=2.45D-08 Max=3.86D-07 NDo=     1
 LinEq1:  Iter=  7 NonCon=     1 RMS=9.57D-09 Max=2.41D-07 NDo=     1
 LinEq1:  Iter=  8 NonCon=     0 RMS=3.72D-09 Max=7.76D-08 NDo=     1
 Linear equations converged to 9.269D-09 9.269D-08 after     8 iterations.
     Accept linear search using points  1 and  2.
 LinEq1:  Iter=  0 NonCon=     1 RMS=5.11D-06 Max=1.09D-04 NDo=     1
 LinEq1:  Iter=  1 NonCon=     1 RMS=3.25D-06 Max=1.03D-04 NDo=     1
 LinEq1:  Iter=  2 NonCon=     1 RMS=1.37D-06 Max=3.88D-05 NDo=     1
 LinEq1:  Iter=  3 NonCon=     1 RMS=4.46D-07 Max=1.16D-05 NDo=     1
 LinEq1:  Iter=  4 NonCon=     1 RMS=2.33D-07 Max=7.50D-06 NDo=     1
 LinEq1:  Iter=  5 NonCon=     1 RMS=1.56D-07 Max=4.93D-06 NDo=     1
 LinEq1:  Iter=  6 NonCon=     1 RMS=7.22D-08 Max=1.53D-06 NDo=     1
 LinEq1:  Iter=  7 NonCon=     1 RMS=2.37D-08 Max=3.62D-07 NDo=     1
 LinEq1:  Iter=  8 NonCon=     1 RMS=8.68D-09 Max=1.78D-07 NDo=     1
 LinEq1:  Iter=  9 NonCon=     0 RMS=1.86D-09 Max=3.78D-08 NDo=     1
 Linear equations converged to 9.269D-09 9.269D-08 after     9 iterations.
     Accept linear search using points  1 and  2.
 LinEq1:  Iter=  0 NonCon=     1 RMS=6.19D-06 Max=1.24D-04 NDo=     1
 LinEq1:  Iter=  1 NonCon=     1 RMS=2.90D-06 Max=7.91D-05 NDo=     1
 LinEq1:  Iter=  2 NonCon=     1 RMS=9.74D-07 Max=1.97D-05 NDo=     1
 LinEq1:  Iter=  3 NonCon=     1 RMS=5.12D-07 Max=1.00D-05 NDo=     1
 LinEq1:  Iter=  4 NonCon=     1 RMS=2.33D-07 Max=8.12D-06 NDo=     1
 LinEq1:  Iter=  5 NonCon=     1 RMS=1.41D-07 Max=5.00D-06 NDo=     1
 LinEq1:  Iter=  6 NonCon=     1 RMS=6.27D-08 Max=1.03D-06 NDo=     1
 LinEq1:  Iter=  7 NonCon=     1 RMS=3.27D-08 Max=6.50D-07 NDo=     1
 LinEq1:  Iter=  8 NonCon=     1 RMS=9.05D-09 Max=2.27D-07 NDo=     1
 LinEq1:  Iter=  9 NonCon=     1 RMS=3.50D-09 Max=1.06D-07 NDo=     1
 LinEq1:  Iter= 10 NonCon=     0 RMS=8.96D-10 Max=1.47D-08 NDo=     1
 Linear equations converged to 9.269D-09 9.269D-08 after    10 iterations.
     Accept linear search using points  1 and  2.
 LinEq1:  Iter=  0 NonCon=     1 RMS=3.07D-06 Max=4.85D-05 NDo=     1
 LinEq1:  Iter=  1 NonCon=     1 RMS=1.14D-06 Max=2.72D-05 NDo=     1
 LinEq1:  Iter=  2 NonCon=     1 RMS=4.87D-07 Max=1.00D-05 NDo=     1
 LinEq1:  Iter=  3 NonCon=     1 RMS=2.50D-07 Max=5.29D-06 NDo=     1
 LinEq1:  Iter=  4 NonCon=     1 RMS=1.21D-07 Max=4.08D-06 NDo=     1
 LinEq1:  Iter=  5 NonCon=     1 RMS=7.39D-08 Max=2.45D-06 NDo=     1
 LinEq1:  Iter=  6 NonCon=     1 RMS=2.74D-08 Max=5.29D-07 NDo=     1
 LinEq1:  Iter=  7 NonCon=     1 RMS=7.86D-09 Max=1.94D-07 NDo=     1
 LinEq1:  Iter=  8 NonCon=     0 RMS=3.01D-09 Max=5.46D-08 NDo=     1
 Linear equations converged to 9.269D-09 9.269D-08 after     8 iterations.
     Accept linear search using points  1 and  2.
     Minimum is close to point  2 DX= -3.79D-02 DF= -3.66D-10 DXR=  3.94D-02 DFR=  1.56D-03 which will be used.
 LinEq1:  Iter=  0 NonCon=     1 RMS=2.23D-06 Max=4.06D-05 NDo=     1
 LinEq1:  Iter=  1 NonCon=     1 RMS=1.31D-06 Max=2.95D-05 NDo=     1
 LinEq1:  Iter=  2 NonCon=     1 RMS=5.03D-07 Max=1.04D-05 NDo=     1
 LinEq1:  Iter=  3 NonCon=     1 RMS=1.74D-07 Max=4.75D-06 NDo=     1
 LinEq1:  Iter=  4 NonCon=     1 RMS=6.82D-08 Max=2.78D-06 NDo=     1
 LinEq1:  Iter=  5 NonCon=     1 RMS=2.45D-08 Max=6.21D-07 NDo=     1
 LinEq1:  Iter=  6 NonCon=     1 RMS=9.56D-09 Max=1.89D-07 NDo=     1
 LinEq1:  Iter=  7 NonCon=     1 RMS=5.71D-09 Max=1.05D-07 NDo=     1
 LinEq1:  Iter=  8 NonCon=     1 RMS=2.53D-09 Max=5.22D-08 NDo=     1
 LinEq1:  Iter=  9 NonCon=     0 RMS=6.10D-10 Max=1.17D-08 NDo=     1
 Linear equations converged to 5.072D-09 5.072D-08 after     9 iterations.
     Accept linear search using points  1 and  2.
 LinEq1:  Iter=  0 NonCon=     1 RMS=2.78D-06 Max=5.67D-05 NDo=     1
 LinEq1:  Iter=  1 NonCon=     1 RMS=1.18D-06 Max=2.71D-05 NDo=     1
 LinEq1:  Iter=  2 NonCon=     1 RMS=3.85D-07 Max=8.21D-06 NDo=     1
 LinEq1:  Iter=  3 NonCon=     1 RMS=2.14D-07 Max=4.21D-06 NDo=     1
 LinEq1:  Iter=  4 NonCon=     1 RMS=1.05D-07 Max=3.08D-06 NDo=     1
 LinEq1:  Iter=  5 NonCon=     1 RMS=6.06D-08 Max=2.14D-06 NDo=     1
 LinEq1:  Iter=  6 NonCon=     1 RMS=3.13D-08 Max=6.67D-07 NDo=     1
 LinEq1:  Iter=  7 NonCon=     1 RMS=1.68D-08 Max=3.72D-07 NDo=     1
 LinEq1:  Iter=  8 NonCon=     1 RMS=5.08D-09 Max=1.44D-07 NDo=     1
 LinEq1:  Iter=  9 NonCon=     0 RMS=1.88D-09 Max=4.76D-08 NDo=     1
 Linear equations converged to 6.483D-09 6.483D-08 after     9 iterations.
     Accept linear search using points  1 and  2.
 LinEq1:  Iter=  0 NonCon=     1 RMS=1.31D-06 Max=3.16D-05 NDo=     1
 LinEq1:  Iter=  1 NonCon=     1 RMS=6.51D-07 Max=1.89D-05 NDo=     1
 LinEq1:  Iter=  2 NonCon=     1 RMS=1.94D-07 Max=3.70D-06 NDo=     1
 LinEq1:  Iter=  3 NonCon=     1 RMS=9.98D-08 Max=2.48D-06 NDo=     1
 LinEq1:  Iter=  4 NonCon=     1 RMS=5.31D-08 Max=2.03D-06 NDo=     1
 LinEq1:  Iter=  5 NonCon=     1 RMS=2.39D-08 Max=6.67D-07 NDo=     1
 LinEq1:  Iter=  6 NonCon=     1 RMS=1.13D-08 Max=2.23D-07 NDo=     1
 LinEq1:  Iter=  7 NonCon=     1 RMS=7.37D-09 Max=1.40D-07 NDo=     1
 LinEq1:  Iter=  8 NonCon=     1 RMS=2.06D-09 Max=4.11D-08 NDo=     1
 LinEq1:  Iter=  9 NonCon=     0 RMS=8.09D-10 Max=1.50D-08 NDo=     1
 Linear equations converged to 2.354D-09 2.354D-08 after     9 iterations.
     Accept linear search using points  1 and  2.
 LinEq1:  Iter=  0 NonCon=     1 RMS=1.69D-06 Max=3.15D-05 NDo=     1
 LinEq1:  Iter=  1 NonCon=     1 RMS=7.81D-07 Max=1.83D-05 NDo=     1
 LinEq1:  Iter=  2 NonCon=     1 RMS=1.97D-07 Max=4.70D-06 NDo=     1
 LinEq1:  Iter=  3 NonCon=     1 RMS=1.06D-07 Max=2.71D-06 NDo=     1
 LinEq1:  Iter=  4 NonCon=     1 RMS=6.81D-08 Max=2.32D-06 NDo=     1
 LinEq1:  Iter=  5 NonCon=     1 RMS=3.46D-08 Max=1.14D-06 NDo=     1
 LinEq1:  Iter=  6 NonCon=     1 RMS=1.52D-08 Max=2.56D-07 NDo=     1
 LinEq1:  Iter=  7 NonCon=     1 RMS=7.22D-09 Max=1.30D-07 NDo=     1
 LinEq1:  Iter=  8 NonCon=     1 RMS=2.18D-09 Max=5.58D-08 NDo=     1
 LinEq1:  Iter=  9 NonCon=     1 RMS=8.97D-10 Max=3.19D-08 NDo=     1
 LinEq1:  Iter= 10 NonCon=     0 RMS=1.81D-10 Max=2.94D-09 NDo=     1
 Linear equations converged to 2.763D-09 2.763D-08 after    10 iterations.
     Accept linear search using points  1 and  2.
 LinEq1:  Iter=  0 NonCon=     1 RMS=1.50D-06 Max=2.35D-05 NDo=     1
 LinEq1:  Iter=  1 NonCon=     1 RMS=4.58D-07 Max=1.30D-05 NDo=     1
 LinEq1:  Iter=  2 NonCon=     1 RMS=1.78D-07 Max=3.95D-06 NDo=     1
 LinEq1:  Iter=  3 NonCon=     1 RMS=9.90D-08 Max=1.78D-06 NDo=     1
 LinEq1:  Iter=  4 NonCon=     1 RMS=4.17D-08 Max=1.06D-06 NDo=     1
 LinEq1:  Iter=  5 NonCon=     1 RMS=1.95D-08 Max=7.17D-07 NDo=     1
 LinEq1:  Iter=  6 NonCon=     1 RMS=7.77D-09 Max=2.24D-07 NDo=     1
 LinEq1:  Iter=  7 NonCon=     1 RMS=3.80D-09 Max=7.33D-08 NDo=     1
 LinEq1:  Iter=  8 NonCon=     0 RMS=1.49D-09 Max=2.60D-08 NDo=     1
 Linear equations converged to 5.210D-09 5.210D-08 after     8 iterations.
     Minimum is close to point  2 DX=  1.57D-02 DF= -1.01D-11 DXR=  1.55D-02 DFR=  2.39D-04 which will be used.
 LinEq1:  Iter=  0 NonCon=     1 RMS=2.34D-07 Max=4.08D-06 NDo=     1
 LinEq1:  Iter=  1 NonCon=     1 RMS=1.47D-07 Max=3.87D-06 NDo=     1
 LinEq1:  Iter=  2 NonCon=     1 RMS=6.00D-08 Max=1.45D-06 NDo=     1
 LinEq1:  Iter=  3 NonCon=     1 RMS=2.63D-08 Max=9.48D-07 NDo=     1
 LinEq1:  Iter=  4 NonCon=     1 RMS=1.34D-08 Max=3.87D-07 NDo=     1
 LinEq1:  Iter=  5 NonCon=     1 RMS=8.44D-09 Max=1.54D-07 NDo=     1
 LinEq1:  Iter=  6 NonCon=     1 RMS=3.63D-09 Max=7.18D-08 NDo=     1
 LinEq1:  Iter=  7 NonCon=     1 RMS=1.10D-09 Max=2.94D-08 NDo=     1
 LinEq1:  Iter=  8 NonCon=     1 RMS=3.82D-10 Max=1.01D-08 NDo=     1
 LinEq1:  Iter=  9 NonCon=     0 RMS=1.17D-10 Max=2.09D-09 NDo=     1
 Linear equations converged to 5.327D-10 5.327D-09 after     9 iterations.
 LinEq1:  Iter=  0 NonCon=     1 RMS=9.77D-07 Max=1.75D-05 NDo=     1
 LinEq1:  Iter=  1 NonCon=     1 RMS=4.65D-07 Max=9.52D-06 NDo=     1
 LinEq1:  Iter=  2 NonCon=     1 RMS=1.35D-07 Max=2.73D-06 NDo=     1
 LinEq1:  Iter=  3 NonCon=     1 RMS=5.21D-08 Max=1.15D-06 NDo=     1
 LinEq1:  Iter=  4 NonCon=     1 RMS=2.69D-08 Max=6.69D-07 NDo=     1
 LinEq1:  Iter=  5 NonCon=     1 RMS=1.32D-08 Max=3.04D-07 NDo=     1
 LinEq1:  Iter=  6 NonCon=     1 RMS=7.72D-09 Max=2.11D-07 NDo=     1
 LinEq1:  Iter=  7 NonCon=     1 RMS=3.69D-09 Max=6.93D-08 NDo=     1
 LinEq1:  Iter=  8 NonCon=     1 RMS=1.92D-09 Max=3.95D-08 NDo=     1
 LinEq1:  Iter=  9 NonCon=     0 RMS=7.57D-10 Max=1.49D-08 NDo=     1
 Linear equations converged to 2.429D-09 2.429D-08 after     9 iterations.
     Accept linear search using points  1 and  2.
     Minimum is close to point  2 DX= -8.04D-03 DF= -1.02D-12 DXR=  8.10D-03 DFR=  6.56D-05 which will be used.
 LinEq1:  Iter=  0 NonCon=     1 RMS=1.01D-07 Max=2.00D-06 NDo=     1
 LinEq1:  Iter=  1 NonCon=     1 RMS=4.78D-08 Max=1.19D-06 NDo=     1
 LinEq1:  Iter=  2 NonCon=     1 RMS=2.61D-08 Max=3.74D-07 NDo=     1
 LinEq1:  Iter=  3 NonCon=     1 RMS=1.29D-08 Max=3.22D-07 NDo=     1
 LinEq1:  Iter=  4 NonCon=     1 RMS=7.13D-09 Max=1.78D-07 NDo=     1
 LinEq1:  Iter=  5 NonCon=     1 RMS=3.67D-09 Max=8.97D-08 NDo=     1
 LinEq1:  Iter=  6 NonCon=     1 RMS=1.84D-09 Max=3.67D-08 NDo=     1
 LinEq1:  Iter=  7 NonCon=     1 RMS=6.44D-10 Max=1.46D-08 NDo=     1
 LinEq1:  Iter=  8 NonCon=     1 RMS=1.97D-10 Max=4.72D-09 NDo=     1
 LinEq1:  Iter=  9 NonCon=     0 RMS=7.93D-11 Max=1.14D-09 NDo=     1
 Linear equations converged to 2.785D-10 2.785D-09 after     9 iterations.
 LinEq1:  Iter=  0 NonCon=     1 RMS=1.71D-07 Max=2.47D-06 NDo=     1
 LinEq1:  Iter=  1 NonCon=     1 RMS=8.06D-08 Max=1.79D-06 NDo=     1
 LinEq1:  Iter=  2 NonCon=     1 RMS=2.50D-08 Max=4.53D-07 NDo=     1
 LinEq1:  Iter=  3 NonCon=     1 RMS=1.13D-08 Max=2.32D-07 NDo=     1
 LinEq1:  Iter=  4 NonCon=     1 RMS=6.49D-09 Max=1.81D-07 NDo=     1
 LinEq1:  Iter=  5 NonCon=     1 RMS=3.50D-09 Max=1.05D-07 NDo=     1
 LinEq1:  Iter=  6 NonCon=     1 RMS=2.00D-09 Max=3.31D-08 NDo=     1
 LinEq1:  Iter=  7 NonCon=     1 RMS=8.32D-10 Max=1.49D-08 NDo=     1
 LinEq1:  Iter=  8 NonCon=     1 RMS=3.62D-10 Max=8.80D-09 NDo=     1
 LinEq1:  Iter=  9 NonCon=     0 RMS=1.52D-10 Max=3.19D-09 NDo=     1
 Linear equations converged to 4.186D-10 4.186D-09 after     9 iterations.
 LinEq1:  Iter=  0 NonCon=     1 RMS=1.40D-07 Max=2.93D-06 NDo=     1
 LinEq1:  Iter=  1 NonCon=     1 RMS=6.20D-08 Max=1.60D-06 NDo=     1
 LinEq1:  Iter=  2 NonCon=     1 RMS=2.90D-08 Max=4.41D-07 NDo=     1
 LinEq1:  Iter=  3 NonCon=     1 RMS=1.40D-08 Max=2.34D-07 NDo=     1
 LinEq1:  Iter=  4 NonCon=     1 RMS=6.25D-09 Max=2.05D-07 NDo=     1
 LinEq1:  Iter=  5 NonCon=     1 RMS=3.60D-09 Max=1.17D-07 NDo=     1
 LinEq1:  Iter=  6 NonCon=     1 RMS=2.00D-09 Max=5.23D-08 NDo=     1
 LinEq1:  Iter=  7 NonCon=     1 RMS=8.82D-10 Max=1.76D-08 NDo=     1
 LinEq1:  Iter=  8 NonCon=     1 RMS=2.64D-10 Max=5.77D-09 NDo=     1
 LinEq1:  Iter=  9 NonCon=     0 RMS=1.11D-10 Max=1.67D-09 NDo=     1
 Linear equations converged to 3.144D-10 3.144D-09 after     9 iterations.
 LinEq1:  Iter=  0 NonCon=     1 RMS=1.38D-07 Max=2.07D-06 NDo=     1
 LinEq1:  Iter=  1 NonCon=     1 RMS=6.53D-08 Max=1.41D-06 NDo=     1
 LinEq1:  Iter=  2 NonCon=     1 RMS=1.93D-08 Max=3.62D-07 NDo=     1
 LinEq1:  Iter=  3 NonCon=     1 RMS=9.42D-09 Max=2.03D-07 NDo=     1
 LinEq1:  Iter=  4 NonCon=     1 RMS=4.95D-09 Max=1.57D-07 NDo=     1
 LinEq1:  Iter=  5 NonCon=     1 RMS=2.41D-09 Max=8.96D-08 NDo=     1
 LinEq1:  Iter=  6 NonCon=     1 RMS=1.21D-09 Max=2.30D-08 NDo=     1
 LinEq1:  Iter=  7 NonCon=     1 RMS=5.47D-10 Max=1.00D-08 NDo=     1
 LinEq1:  Iter=  8 NonCon=     1 RMS=2.66D-10 Max=6.25D-09 NDo=     1
 LinEq1:  Iter=  9 NonCon=     0 RMS=1.20D-10 Max=2.69D-09 NDo=     1
 Linear equations converged to 3.069D-10 3.069D-09 after     9 iterations.
 LinEq1:  Iter=  0 NonCon=     1 RMS=1.10D-07 Max=2.48D-06 NDo=     1
 LinEq1:  Iter=  1 NonCon=     1 RMS=4.98D-08 Max=1.21D-06 NDo=     1
 LinEq1:  Iter=  2 NonCon=     1 RMS=2.58D-08 Max=5.15D-07 NDo=     1
 LinEq1:  Iter=  3 NonCon=     1 RMS=1.21D-08 Max=2.27D-07 NDo=     1
 LinEq1:  Iter=  4 NonCon=     1 RMS=4.86D-09 Max=1.65D-07 NDo=     1
 LinEq1:  Iter=  5 NonCon=     1 RMS=2.57D-09 Max=8.76D-08 NDo=     1
 LinEq1:  Iter=  6 NonCon=     1 RMS=1.28D-09 Max=3.31D-08 NDo=     1
 LinEq1:  Iter=  7 NonCon=     1 RMS=6.59D-10 Max=1.27D-08 NDo=     1
 LinEq1:  Iter=  8 NonCon=     1 RMS=1.93D-10 Max=4.09D-09 NDo=     1
 LinEq1:  Iter=  9 NonCon=     0 RMS=8.21D-11 Max=1.25D-09 NDo=     1
 Linear equations converged to 2.109D-10 2.109D-09 after     9 iterations.
 LinEq1:  Iter=  0 NonCon=     1 RMS=1.11D-07 Max=1.68D-06 NDo=     1
 LinEq1:  Iter=  1 NonCon=     1 RMS=5.22D-08 Max=1.06D-06 NDo=     1
 LinEq1:  Iter=  2 NonCon=     1 RMS=1.55D-08 Max=2.88D-07 NDo=     1
 LinEq1:  Iter=  3 NonCon=     1 RMS=8.38D-09 Max=1.82D-07 NDo=     1
 LinEq1:  Iter=  4 NonCon=     1 RMS=4.03D-09 Max=1.28D-07 NDo=     1
 LinEq1:  Iter=  5 NonCon=     1 RMS=1.92D-09 Max=7.30D-08 NDo=     1
 LinEq1:  Iter=  6 NonCon=     1 RMS=8.56D-10 Max=1.54D-08 NDo=     1
 LinEq1:  Iter=  7 NonCon=     1 RMS=4.29D-10 Max=8.55D-09 NDo=     1
 LinEq1:  Iter=  8 NonCon=     1 RMS=2.16D-10 Max=5.26D-09 NDo=     1
 LinEq1:  Iter=  9 NonCon=     0 RMS=8.96D-11 Max=2.13D-09 NDo=     1
 Linear equations converged to 2.196D-10 2.196D-09 after     9 iterations.
 LinEq1:  Iter=  0 NonCon=     1 RMS=9.20D-08 Max=2.19D-06 NDo=     1
 LinEq1:  Iter=  1 NonCon=     1 RMS=3.91D-08 Max=9.27D-07 NDo=     1
 LinEq1:  Iter=  2 NonCon=     1 RMS=1.77D-08 Max=3.79D-07 NDo=     1
 LinEq1:  Iter=  3 NonCon=     1 RMS=8.36D-09 Max=1.46D-07 NDo=     1
 LinEq1:  Iter=  4 NonCon=     1 RMS=3.68D-09 Max=1.19D-07 NDo=     1
 LinEq1:  Iter=  5 NonCon=     1 RMS=1.86D-09 Max=6.39D-08 NDo=     1
 LinEq1:  Iter=  6 NonCon=     1 RMS=8.97D-10 Max=2.48D-08 NDo=     1
 LinEq1:  Iter=  7 NonCon=     1 RMS=4.89D-10 Max=8.58D-09 NDo=     1
 LinEq1:  Iter=  8 NonCon=     1 RMS=1.51D-10 Max=3.29D-09 NDo=     1
 LinEq1:  Iter=  9 NonCon=     0 RMS=6.13D-11 Max=9.35D-10 NDo=     1
 Linear equations converged to 1.621D-10 1.621D-09 after     9 iterations.
 LinEq1:  Iter=  0 NonCon=     1 RMS=8.28D-08 Max=1.26D-06 NDo=     1
 LinEq1:  Iter=  1 NonCon=     1 RMS=3.78D-08 Max=7.56D-07 NDo=     1
 LinEq1:  Iter=  2 NonCon=     1 RMS=1.21D-08 Max=2.17D-07 NDo=     1
 LinEq1:  Iter=  3 NonCon=     1 RMS=6.69D-09 Max=1.63D-07 NDo=     1
 LinEq1:  Iter=  4 NonCon=     1 RMS=3.14D-09 Max=9.94D-08 NDo=     1
 LinEq1:  Iter=  5 NonCon=     1 RMS=1.75D-09 Max=6.15D-08 NDo=     1
 LinEq1:  Iter=  6 NonCon=     1 RMS=1.02D-09 Max=2.23D-08 NDo=     1
 LinEq1:  Iter=  7 NonCon=     1 RMS=4.25D-10 Max=1.12D-08 NDo=     1
 LinEq1:  Iter=  8 NonCon=     1 RMS=1.57D-10 Max=3.94D-09 NDo=     1
 LinEq1:  Iter=  9 NonCon=     1 RMS=5.97D-11 Max=1.48D-09 NDo=     1
 LinEq1:  Iter= 10 NonCon=     0 RMS=2.63D-12 Max=3.25D-11 NDo=     1
 Linear equations converged to 1.463D-10 1.463D-09 after    10 iterations.
 LinEq1:  Iter=  0 NonCon=     1 RMS=3.77D-08 Max=4.66D-07 NDo=     1
 LinEq1:  Iter=  1 NonCon=     1 RMS=9.42D-09 Max=1.16D-07 NDo=     1
 LinEq1:  Iter=  2 NonCon=     1 RMS=4.83D-09 Max=1.07D-07 NDo=     1
 LinEq1:  Iter=  3 NonCon=     1 RMS=1.89D-09 Max=4.46D-08 NDo=     1
 LinEq1:  Iter=  4 NonCon=     1 RMS=9.48D-10 Max=3.18D-08 NDo=     1
 LinEq1:  Iter=  5 NonCon=     1 RMS=3.15D-10 Max=6.95D-09 NDo=     1
 LinEq1:  Iter=  6 NonCon=     0 RMS=8.87D-11 Max=1.69D-09 NDo=     1
 Linear equations converged to 2.126D-10 2.126D-09 after     6 iterations.
 SCF Done:  E(RHF) =  -738.262014936     a.u. after   51 cycles
            Convg  =    0.5404D-07                   426 Fock formations.
              S**2 =  0.0000                  -V/T =  2.0002
 ExpMin= 4.83D-02 ExpMax= 1.06D+05 ExpMxC= 3.62D+03 IAcc=3 IRadAn=         5 AccDes= 0.00D+00
 HarFok:  IExCor=  205 AccDes= 0.00D+00 IRadAn=         5 IDoV=-2 UseB2=F ITyADJ=14
 ICtDFT= 12500011 ScaDFX=  1.000000  1.000000  1.000000  1.000000
 Range of M.O.s used for correlation:    10   203
 NBasis=   203 NAE=    24 NBE=    24 NFC=     9 NFV=     0
 NROrb=    194 NOA=    15 NOB=    15 NVA=   179 NVB=   179

 **** Warning!!: The largest alpha MO coefficient is  0.19559988D+02

 Orbital symmetries:
       Occupied  (A) (A) (A) (A) (A) (A) (A) (A) (A) (A) (A) (A)
                 (A) (A) (A) (A) (A) (A) (A) (A) (A) (A) (A) (A)
       Virtual   (A) (A) (A) (A) (A) (A) (A) (A) (A) (A) (A) (A)
                 (A) (A) (A) (A) (A) (A) (A) (A) (A) (A) (A) (A)
                 (A) (A) (A) (A) (A) (A) (A) (A) (A) (A) (A) (A)
                 (A) (A) (A) (A) (A) (A) (A) (A) (A) (A) (A) (A)
                 (A) (A) (A) (A) (A) (A) (A) (A) (A) (A) (A) (A)
                 (A) (A) (A) (A) (A) (A) (A) (A) (A) (A) (A) (A)
                 (A) (A) (A) (A) (A) (A) (A) (A) (A) (A) (A) (A)
                 (A) (A) (A) (A) (A) (A) (A) (A) (A) (A) (A) (A)
                 (A) (A) (A) (A) (A) (A) (A) (A) (A) (A) (A) (A)
                 (A) (A) (A) (A) (A) (A) (A) (A) (A) (A) (A) (A)
                 (A) (A) (A) (A) (A) (A) (A) (A) (A) (A) (A) (A)
                 (A) (A) (A) (A) (A) (A) (A) (A) (A) (A) (A) (A)
                 (A) (A) (A) (A) (A) (A) (A) (A) (A) (A) (A) (A)
                 (A) (A) (A) (A) (A) (A) (A) (A) (A) (A) (A) (A)
                 (A) (A) (A) (A) (A) (A) (A) (A) (A) (A) (A)
    12 initial guesses have been made.
 Convergence on wavefunction:    0.000001000000000
 Iteration     1 Dimension    12 NMult     0 NNew     12
 CISAX will form    12 AO SS matrices at one time.
 New state      1 was old state     10
 New state      2 was old state     11
 New state      3 was old state      8
 Iteration     2 Dimension    24 NMult    12 NNew     12
 Iteration     3 Dimension    27 NMult    24 NNew      3
 Iteration     4 Dimension    30 NMult    27 NNew      3
 Iteration     5 Dimension    33 NMult    30 NNew      3
 Iteration     6 Dimension    36 NMult    33 NNew      3
 Iteration     7 Dimension    39 NMult    36 NNew      3
 Iteration     8 Dimension    42 NMult    39 NNew      3
 Iteration     9 Dimension    43 NMult    42 NNew      1
 Iteration    10 Dimension    44 NMult    43 NNew      1
 Iteration    11 Dimension    45 NMult    44 NNew      1
 ***********************************************************************
 Excited states from <AA,BB:AA,BB> singles matrix:
 ***********************************************************************
 
 Ground to excited state transition densities written to RWF  633
 Ground to excited state transition electric dipole moments (Au):
       state          X           Y           Z        Dip. S.      Osc.
         1         0.0008      0.0041     -0.0020      0.0000     -0.0000
         2        -0.0020     -0.0055      0.0117      0.0002     -0.0000
         3         0.1638      0.1103      0.0315      0.0400      0.0041
 Ground to excited state transition velocity dipole moments (Au):
       state          X           Y           Z        Dip. S.      Osc.
         1        -0.0007     -0.0020      0.0007      0.0000     -0.0001
         2         0.0016      0.0025     -0.0046      0.0000     -0.0005
         3         0.0376      0.0212      0.0048      0.0019      0.0081
 Ground to excited state transition magnetic dipole moments (Au):
       state          X           Y           Z
         1         1.0107      0.9872      0.0528
         2         0.8639     -0.8417     -0.6978
         3         0.1038     -0.4555      1.0691
 Ground to excited state transition velocity quadrupole moments (Au):
       state          XX          YY          ZZ          XY          XZ          YZ
         1         0.0089      0.0186     -0.0319     -0.0139      0.0142     -0.0133
         2        -0.0087      0.0245     -0.0016     -0.0034     -0.0185     -0.0214
         3         0.0156      0.1143      0.0012      0.0997      0.0105      0.0172
 <0|del|b> * <b|rxdel|0> + <0|del|b> * <b|delr+rdel|0>
 Rotatory Strengths (R) in cgs (10**-40 erg-esu-cm/Gauss)
       state          XX          YY          ZZ    R(velocity)    E-M Angle
         1        17.5250      5.7500     24.6113     15.9621      146.77
         2       -11.4091    -43.2141      6.6398    -15.9945       70.62
         3        -9.8341     20.8330    -14.0827     -1.0279       90.77
 1/2[<0|r|b>*<b|rxdel|0> + (<0|rxdel|b>*<b|r|0>)*]
 Rotatory Strengths (R) in cgs (10**-40 erg-esu-cm/Gauss)
       state          XX          YY          ZZ     R(length)
         1        -0.6022     -2.8615      0.0729     -1.1302
         2         1.2071     -3.2537      5.7845      1.2460
         3       -12.0274     35.5315    -23.8424     -0.1127
  1/2[<0|del|b>*<b|r|0> + (<0|r|b>*<b|del|0>)*] (Au)
       state          X           Y           Z        Dip. S.   Osc.(frdel)
         1        -0.0000     -0.0000     -0.0000      0.0000      0.0000
         2        -0.0000     -0.0000     -0.0001      0.0001      0.0000
         3         0.0062      0.0023      0.0002     -0.0086     -0.0058

 Excitation energies and oscillator strengths:
 
 Excited State   1:      Singlet-A      -1.0329 eV    -1200.38 nm  f=-0.0000  <S**2>=0.000
      19 -> 25         0.18656
      21 -> 25         0.64446
      21 -> 37        -0.13724
 This state for optimization and/or second-order correction.
 Total Energy, E(CIS/TDA) =  -738.299972262    
 Copying the excited state density for this state as the 1-particle RhoCI density.
 
 Excited State   2:      Singlet-A      -1.0100 eV    -1227.60 nm  f=-0.0000  <S**2>=0.000
      20 -> 25         0.66937
      20 -> 37        -0.14267
 
 Excited State   3:      Singlet-A      4.2321 eV  292.96 nm  f=0.0041  <S**2>=0.000
      22 -> 27         0.27405
      23 -> 27         0.58789
      23 -> 28         0.16424
 SavETr:  write IOETrn=   770 NScale= 10 NData=  16 NLR=1 NState=    3 LETran=      64.
          IDoAtm=11111
          Differentiating once with respect to electric field.
                with respect to dipole field.
          Differentiating once with respect to nuclear coordinates.
 Keep R1 ints in memory in canonical form, NReq=220788045.
          There are     1 degrees of freedom in the 1st order CPHF.  IDoFFX=0 NUNeed=     1.
 LinEq1:  Iter=  0 NonCon=     1 RMS=8.14D-04 Max=3.13D-02 NDo=     1
 AX will form     1 AO Fock derivatives at one time.
 LinEq1:  Iter=  1 NonCon=     1 RMS=9.10D-05 Max=1.60D-03 NDo=     1
 LinEq1:  Iter=  2 NonCon=     1 RMS=3.62D-05 Max=7.62D-04 NDo=     1
 LinEq1:  Iter=  3 NonCon=     1 RMS=1.35D-05 Max=4.63D-04 NDo=     1
 LinEq1:  Iter=  4 NonCon=     1 RMS=4.33D-06 Max=7.61D-05 NDo=     1
 LinEq1:  Iter=  5 NonCon=     1 RMS=2.06D-06 Max=4.95D-05 NDo=     1
 LinEq1:  Iter=  6 NonCon=     1 RMS=1.04D-06 Max=1.95D-05 NDo=     1
 LinEq1:  Iter=  7 NonCon=     1 RMS=2.94D-07 Max=9.45D-06 NDo=     1
 LinEq1:  Iter=  8 NonCon=     1 RMS=1.34D-07 Max=3.22D-06 NDo=     1
 LinEq1:  Iter=  9 NonCon=     1 RMS=5.10D-08 Max=7.86D-07 NDo=     1
 LinEq1:  Iter= 10 NonCon=     1 RMS=1.93D-08 Max=4.70D-07 NDo=     1
 LinEq1:  Iter= 11 NonCon=     1 RMS=5.85D-09 Max=1.01D-07 NDo=     1
 LinEq1:  Iter= 12 NonCon=     1 RMS=1.62D-09 Max=4.03D-08 NDo=     1
 LinEq1:  Iter= 13 NonCon=     1 RMS=5.06D-10 Max=8.32D-09 NDo=     1
 LinEq1:  Iter= 14 NonCon=     1 RMS=1.40D-10 Max=1.87D-09 NDo=     1
 LinEq1:  Iter= 15 NonCon=     0 RMS=3.44D-11 Max=8.86D-10 NDo=     1
 Linear equations converged to 1.000D-10 1.000D-09 after    15 iterations.
 End of Minotr F.D. properties file   721 does not exist.
 End of Minotr F.D. properties file   722 does not exist.
 End of Minotr F.D. properties file   788 does not exist.

 **********************************************************************

            Population analysis using the SCF density.

 **********************************************************************

 Orbital symmetries:
       Occupied  (A) (A) (A) (A) (A) (A) (A) (A) (A) (A) (A) (A)
                 (A) (A) (A) (A) (A) (A) (A) (A) (A) (A) (A) (A)
       Virtual   (A) (A) (A) (A) (A) (A) (A) (A) (A) (A) (A) (A)
                 (A) (A) (A) (A) (A) (A) (A) (A) (A) (A) (A) (A)
                 (A) (A) (A) (A) (A) (A) (A) (A) (A) (A) (A) (A)
                 (A) (A) (A) (A) (A) (A) (A) (A) (A) (A) (A) (A)
                 (A) (A) (A) (A) (A) (A) (A) (A) (A) (A) (A) (A)
                 (A) (A) (A) (A) (A) (A) (A) (A) (A) (A) (A) (A)
                 (A) (A) (A) (A) (A) (A) (A) (A) (A) (A) (A) (A)
                 (A) (A) (A) (A) (A) (A) (A) (A) (A) (A) (A) (A)
                 (A) (A) (A) (A) (A) (A) (A) (A) (A) (A) (A) (A)
                 (A) (A) (A) (A) (A) (A) (A) (A) (A) (A) (A) (A)
                 (A) (A) (A) (A) (A) (A) (A) (A) (A) (A) (A) (A)
                 (A) (A) (A) (A) (A) (A) (A) (A) (A) (A) (A) (A)
                 (A) (A) (A) (A) (A) (A) (A) (A) (A) (A) (A) (A)
                 (A) (A) (A) (A) (A) (A) (A) (A) (A) (A) (A) (A)
                 (A) (A) (A) (A) (A) (A) (A) (A) (A) (A) (A)
 The electronic state is 1-A.
 Alpha  occ. eigenvalues -- -104.90908 -20.71325 -20.70052 -20.67875 -15.80937
 Alpha  occ. eigenvalues --  -10.63070  -8.09885  -8.09516  -8.09502  -1.66152
 Alpha  occ. eigenvalues --   -1.45987  -1.26872  -1.13177  -0.92626  -0.79978
 Alpha  occ. eigenvalues --   -0.76557  -0.74140  -0.60819  -0.59894  -0.59228
 Alpha  occ. eigenvalues --   -0.59128  -0.49658  -0.47884  -0.46809
 Alpha virt. eigenvalues --   -0.02666   0.06197   0.08744   0.09486   0.12055
 Alpha virt. eigenvalues --    0.12570   0.13573   0.16217   0.17522   0.18715
 Alpha virt. eigenvalues --    0.21568   0.23475   0.24982   0.27370   0.28722
 Alpha virt. eigenvalues --    0.29772   0.31419   0.32061   0.34555   0.35935
 Alpha virt. eigenvalues --    0.39351   0.40200   0.42466   0.44097   0.46205
 Alpha virt. eigenvalues --    0.49397   0.49548   0.53903   0.54572   0.58409
 Alpha virt. eigenvalues --    0.64153   0.65669   0.67467   0.75359   0.78633
 Alpha virt. eigenvalues --    0.84102   0.87252   0.88502   0.90488   0.92679
 Alpha virt. eigenvalues --    0.93808   0.96121   0.98238   1.00698   1.07154
 Alpha virt. eigenvalues --    1.08464   1.11335   1.14405   1.18323   1.19709
 Alpha virt. eigenvalues --    1.20834   1.21329   1.22534   1.23304   1.23541
 Alpha virt. eigenvalues --    1.25107   1.27631   1.29212   1.34347   1.39093
 Alpha virt. eigenvalues --    1.40029   1.42603   1.45513   1.47345   1.48869
 Alpha virt. eigenvalues --    1.52067   1.55294   1.58471   1.64565   1.72771
 Alpha virt. eigenvalues --    1.74622   1.83072   2.13322   2.33913   2.36101
 Alpha virt. eigenvalues --    2.36517   2.39709   2.41725   2.51629   2.52938
 Alpha virt. eigenvalues --    2.53194   2.57019   2.57796   2.58800   2.62920
 Alpha virt. eigenvalues --    2.70515   2.76856   2.90657   3.05243   3.10477
 Alpha virt. eigenvalues --    3.45942   3.60018   3.61964   3.64116   3.64158
 Alpha virt. eigenvalues --    3.65799   3.69351   3.71997   3.75019   3.77786
 Alpha virt. eigenvalues --    3.79988   3.83957   3.92831   3.96799   4.09469
 Alpha virt. eigenvalues --    4.10779   4.12778   4.22188   4.33393   4.34959
 Alpha virt. eigenvalues --    4.47720   4.77634   4.83904   4.94516   5.30403
 Alpha virt. eigenvalues --    5.31466   5.32653   5.33190   5.34776   5.34903
 Alpha virt. eigenvalues --    5.37357   5.37460   5.38604   5.39664   5.41845
 Alpha virt. eigenvalues --    5.43289   5.43529   5.43611   5.45722   5.46640
 Alpha virt. eigenvalues --    5.51951   5.57811   5.62117   5.64256   5.65649
 Alpha virt. eigenvalues --    5.72970   5.78123   5.86311   5.89171   5.92969
 Alpha virt. eigenvalues --    6.02622   6.05616   6.21450   6.39496   6.50095
 Alpha virt. eigenvalues --    6.73986   7.01829   7.05089   7.28984   7.95021
 Alpha virt. eigenvalues --   10.57136  10.63885  10.73064  10.87286  11.21730
 Alpha virt. eigenvalues --   11.50954  14.78486  14.79885  14.82157  14.88920
 Alpha virt. eigenvalues --   14.91641  14.92559  14.95407  14.97814  15.00586
 Alpha virt. eigenvalues --   15.06851  15.21121  15.38994  15.41669  15.56880
 Alpha virt. eigenvalues --   15.85981  26.71076  26.81185  27.92845  37.61601
 Alpha virt. eigenvalues --   51.31465  51.74943  52.20325 219.44032
          Condensed to atoms (all electrons):
               1          2          3          4          5
     1  N    7.622319   0.014859  -0.546976  -0.616733   0.017238
     2  O    0.014859   7.974134  -0.001625  -0.002563   0.005842
     3  O   -0.546976  -0.001625   8.948216  -0.046854  -0.023160
     4  O   -0.616733  -0.002563  -0.046854   9.029250  -0.090565
     5  Cl   0.017238   0.005842  -0.023160  -0.090565  17.007156
 Mulliken charges:
               1
     1  N    0.509294
     2  O    0.009352
     3  O   -0.329600
     4  O   -0.272535
     5  Cl   0.083489
 Sum of Mulliken charges =   0.00000
 Mulliken charges with hydrogens summed into heavy atoms:
               1
     1  N    0.509294
     2  O    0.009352
     3  O   -0.329600
     4  O   -0.272535
     5  Cl   0.083489
 Electronic spatial extent (au):  <R**2>=            577.3197
 Charge=              0.0000 electrons
 Dipole moment (field-independent basis, Debye):
    X=              0.1678    Y=             -0.3568    Z=             -0.2045  Tot=              0.4442
 Quadrupole moment (field-independent basis, Debye-Ang):
   XX=            -32.9254   YY=            -33.7105   ZZ=            -33.8363
   XY=             -0.4082   XZ=             -0.0385   YZ=              0.6226
 Traceless Quadrupole moment (field-independent basis, Debye-Ang):
   XX=              0.5654   YY=             -0.2198   ZZ=             -0.3456
   XY=             -0.4082   XZ=             -0.0385   YZ=              0.6226
 Octapole moment (field-independent basis, Debye-Ang**2):
  XXX=             -1.3021  YYY=             -0.4588  ZZZ=             -1.9657  XYY=              3.0811
  XXY=              0.3487  XXZ=             -4.9395  XZZ=             -3.4864  YZZ=             -2.6701
  YYZ=              1.1747  XYZ=              3.0938
 Hexadecapole moment (field-independent basis, Debye-Ang**3):
 XXXX=           -379.4628 YYYY=           -226.3691 ZZZZ=            -79.6949 XXXY=             -7.3206
 XXXZ=             11.4370 YYYX=              1.7037 YYYZ=             -1.0165 ZZZX=              1.3380
 ZZZY=             -2.1624 XXYY=            -99.2876 XXZZ=            -65.1705 YYZZ=            -50.3934
 XXYZ=              0.0718 YYXZ=             -4.9182 ZZXY=              2.8673
 N-N= 2.050065978378D+02 E-N=-2.164007770387D+03  KE= 7.381101279961D+02
 Calling FoFJK, ICntrl=  10005127 FMM=F ISym2X=0 I1Cent= 0 IOpClX= 0 NMat=1 NMatS=1 NMatT=0.
 ***** Axes restored to original set *****
 -------------------------------------------------------------------
 Center     Atomic                   Forces (Hartrees/Bohr)
 Number     Number              X              Y              Z
 -------------------------------------------------------------------
      1        7           0.004543898   -0.000078871   -0.022753475
      2        8          -0.000441299   -0.000324198   -0.000068983
      3        8          -0.001533746   -0.004415874    0.024889303
      4        8           0.004058472   -0.002996999   -0.010814874
      5       17          -0.006627325    0.007815941    0.008748029
 -------------------------------------------------------------------
 Cartesian Forces:  Max     0.024889303 RMS     0.010013196

 GradGradGradGradGradGradGradGradGradGradGradGradGradGradGradGradGradGrad
 Berny optimization.
 FormGI is forming the generalized inverse of G from B-inverse, IUseBI=4.
 Internal  Forces:  Max     0.025322087 RMS     0.008455312
 Search for a local minimum.
 Step number   1 out of a maximum of   22
 All quantities printed in internal units (Hartrees-Bohrs-Radians)
 Mixed Optimization -- RFO/linear search
 Second derivative matrix not updated -- first step.
 The second derivative matrix:
                          R1        R2        R3        R4        R5
           R1           0.01285
           R2           0.00000   1.38891
           R3           0.00000   0.00000   0.53077
           R4           0.00000   0.00000   0.00000   0.01193
           R5           0.00000   0.00000   0.00000   0.00000   0.38679
           A1           0.00000   0.00000   0.00000   0.00000   0.00000
           A2           0.00000   0.00000   0.00000   0.00000   0.00000
           A3           0.00000   0.00000   0.00000   0.00000   0.00000
           A4           0.00000   0.00000   0.00000   0.00000   0.00000
           D1           0.00000   0.00000   0.00000   0.00000   0.00000
           D2           0.00000   0.00000   0.00000   0.00000   0.00000
           D3           0.00000   0.00000   0.00000   0.00000   0.00000
                          A1        A2        A3        A4        D1
           A1           0.25000
           A2           0.00000   0.25000
           A3           0.00000   0.00000   0.25000
           A4           0.00000   0.00000   0.00000   0.25000
           D1           0.00000   0.00000   0.00000   0.00000   0.04682
           D2           0.00000   0.00000   0.00000   0.00000   0.00000
           D3           0.00000   0.00000   0.00000   0.00000   0.00000
                          D2        D3
           D2           0.01832
           D3           0.00000   0.00230
 ITU=  0
     Eigenvalues ---    0.01241   0.02096   0.08564   0.13241   0.23256
     Eigenvalues ---    0.25000   0.38679   0.52689   1.38891
 RFO step:  Lambda=-1.01112169D-03 EMin= 1.24113951D-02
 Linear search not attempted -- first point.
 Iteration  1 RMS(Cart)=  0.01367378 RMS(Int)=  0.00001770
 Iteration  2 RMS(Cart)=  0.00002197 RMS(Int)=  0.00000634
 Iteration  3 RMS(Cart)=  0.00000000 RMS(Int)=  0.00000634
 Variable       Old X    -DE/DX   Delta X   Delta X   Delta X     New X
                                 (Linear)    (Quad)   (Total)
    R1        6.21405   0.00057   0.00000   0.02531   0.02531   6.23936
    R2        2.16178  -0.02532   0.00000  -0.01822  -0.01822   2.14356
    R3        2.56882  -0.00583   0.00000  -0.01107  -0.01107   2.55775
    R4        6.34344  -0.00003   0.00000   0.01652   0.01652   6.35996
    R5        3.17089  -0.01347   0.00000  -0.03474  -0.03474   3.13615
    A1        1.59008   0.00001   0.00000   0.00126   0.00126   1.59134
    A2        2.03283  -0.00073   0.00000  -0.00307  -0.00307   2.02976
    A3        2.04993  -0.00028   0.00000  -0.00230  -0.00230   2.04763
    A4        1.63204  -0.00007   0.00000  -0.00019  -0.00018   1.63186
    D1       -1.40557  -0.00046   0.00000   0.00093   0.00095  -1.40462
    D2       -0.00747  -0.00001   0.00000   0.00178   0.00177  -0.00569
    D3        2.05029  -0.00031   0.00000  -0.00264  -0.00264   2.04765
         Item               Value     Threshold  Converged?
 Maximum Force            0.025322     0.000450     NO 
 RMS     Force            0.008455     0.000300     NO 
 Maximum Displacement     0.025606     0.001800     NO 
 RMS     Displacement     0.013665     0.001200     NO 
 Predicted change in Energy=-5.068654D-04
 GradGradGradGradGradGradGradGradGradGradGradGradGradGradGradGradGradGrad

                          Input orientation:                          
 ---------------------------------------------------------------------
 Center     Atomic      Atomic             Coordinates (Angstroms)
 Number     Number       Type             X           Y           Z
 ---------------------------------------------------------------------
      1          7           0       -0.230706    1.249700    0.408881
      2          8           0       -2.628083   -0.969235   -0.071019
      3          8           0       -0.147300    1.435593   -0.706992
      4          8           0        0.399591    0.149417    0.882244
      5         17           0        1.207570   -0.797080   -0.215716
 ---------------------------------------------------------------------
                    Distance matrix (angstroms):
                    1          2          3          4          5
     1  N    0.000000
     2  O    3.301726   0.000000
     3  O    1.134322   3.513110   0.000000
     4  O    1.353503   3.365546   2.116368   0.000000
     5  Cl   2.578385   3.842240   2.657416   1.659579   0.000000
 Stoichiometry    ClNO3
 Framework group  C1[X(ClNO3)]
 Deg. of freedom     9
 Full point group                 C1      NOp   1
 Largest Abelian subgroup         C1      NOp   1
 Largest concise Abelian subgroup C1      NOp   1
                         Standard orientation:                         
 ---------------------------------------------------------------------
 Center     Atomic      Atomic             Coordinates (Angstroms)
 Number     Number       Type             X           Y           Z
 ---------------------------------------------------------------------
      1          7           0       -0.201251    1.251613    0.409035
      2          8           0       -2.646734   -0.914413   -0.069861
      3          8           0       -0.114744    1.436172   -0.706824
      4          8           0        0.405349    0.137654    0.881372
      5         17           0        1.191635   -0.825682   -0.217691
 ---------------------------------------------------------------------
 Rotational constants (GHZ):           4.3224844           2.6654880           1.9623792
 Standard basis: 6-311++G(3df,3pd) (5D, 7F)
 There are   233 symmetry adapted cartesian basis functions of A   symmetry.
 There are   203 symmetry adapted basis functions of A   symmetry.
   203 basis functions,   307 primitive gaussians,   233 cartesian basis functions
    24 alpha electrons       24 beta electrons
       nuclear repulsion energy       206.3012378653 Hartrees.
 NAtoms=    5 NActive=    5 NUniq=    5 SFac= 1.00D+00 NAtFMM=   60 NAOKFM=F Big=F
 Integral buffers will be    131072 words long.
 Raffenetti 1 integral format.
 Two-electron integral symmetry is turned on.
 One-electron integrals computed using PRISM.
 NBasis=   203 RedAO= T EigKep=  1.93D-04  NBF=   203
 NBsUse=   203 1.00D-06 EigRej= -1.00D+00 NBFU=   203
 Initial guess from the checkpoint file:  "/localscratch/alrebei.28162812.0/Gau-32717.chk"
 B after Tr=     0.000000    0.000000    0.000000
         Rot=    0.999944   -0.000305   -0.000337    0.010537 Ang=  -1.21 deg.
 ExpMin= 4.83D-02 ExpMax= 1.06D+05 ExpMxC= 3.62D+03 IAcc=2 IRadAn=         4 AccDes= 0.00D+00
 Harris functional with IExCor=  205 and IRadAn=       4 diagonalized for initial guess.
 HarFok:  IExCor=  205 AccDes= 0.00D+00 IRadAn=         4 IDoV= 1 UseB2=F ITyADJ=14
 ICtDFT=  3500011 ScaDFX=  1.000000  1.000000  1.000000  1.000000
 FoFCou: FMM=F IPFlag=           0 FMFlag=      100000 FMFlg1=           0
         NFxFlg=           0 DoJE=T BraDBF=F KetDBF=T FulRan=T
         wScrn=  0.000000 ICntrl=       500 IOpCl=  0 I1Cent=   200000004 NGrid=           0
         NMat0=    1 NMatS0=      1 NMatT0=    0 NMatD0=    1 NMtDS0=    0 NMtDT0=    0
 Petite list used in FoFCou.
 Keep R1 ints in memory in canonical form, NReq=220787261.
 Gradient too large for Newton-Raphson -- use scaled steepest descent instead.
     Minimum is close to point  3 DX=  5.67D-02 DF= -7.20D-07 DXR=  8.64D-02 DFR=  7.52D-03 which will be used.
 Gradient too large for Newton-Raphson -- use scaled steepest descent instead.
 Gradient too large for Newton-Raphson -- use scaled steepest descent instead.
 Gradient too large for Newton-Raphson -- use scaled steepest descent instead.
 Gradient too large for Newton-Raphson -- use scaled steepest descent instead.
 Gradient too large for Newton-Raphson -- use scaled steepest descent instead.
 Gradient too large for Newton-Raphson -- use scaled steepest descent instead.
 Gradient too large for Newton-Raphson -- use scaled steepest descent instead.
 Gradient too large for Newton-Raphson -- use scaled steepest descent instead.
 Gradient too large for Newton-Raphson -- use scaled steepest descent instead.
 Gradient too large for Newton-Raphson -- use scaled steepest descent instead.
 Gradient too large for Newton-Raphson -- use scaled steepest descent instead.
 Gradient too large for Newton-Raphson -- use scaled steepest descent instead.
 Gradient too large for Newton-Raphson -- use scaled steepest descent instead.
 Gradient too large for Newton-Raphson -- use scaled steepest descent instead.
 Gradient too large for Newton-Raphson -- use scaled steepest descent instead.
 Gradient too large for Newton-Raphson -- use scaled steepest descent instead.
 Gradient too large for Newton-Raphson -- use scaled steepest descent instead.
 Gradient too large for Newton-Raphson -- use scaled steepest descent instead.
 Gradient too large for Newton-Raphson -- use scaled steepest descent instead.
 Gradient too large for Newton-Raphson -- use scaled steepest descent instead.
 Gradient too large for Newton-Raphson -- use scaled steepest descent instead.
 Gradient too large for Newton-Raphson -- use scaled steepest descent instead.
 Gradient too large for Newton-Raphson -- use scaled steepest descent instead.
 Gradient too large for Newton-Raphson -- use scaled steepest descent instead.
 Gradient too large for Newton-Raphson -- use scaled steepest descent instead.
 Gradient too large for Newton-Raphson -- use scaled steepest descent instead.
 LinEq1:  Iter=  0 NonCon=     1 RMS=3.99D-05 Max=5.41D-04 NDo=     1
 AX will form     1 AO Fock derivatives at one time.
 LinEq1:  Iter=  1 NonCon=     1 RMS=8.17D-06 Max=1.53D-04 NDo=     1
 LinEq1:  Iter=  2 NonCon=     1 RMS=5.42D-06 Max=1.01D-04 NDo=     1
 LinEq1:  Iter=  3 NonCon=     1 RMS=1.96D-06 Max=3.39D-05 NDo=     1
 LinEq1:  Iter=  4 NonCon=     1 RMS=8.91D-07 Max=2.01D-05 NDo=     1
 LinEq1:  Iter=  5 NonCon=     1 RMS=2.39D-07 Max=4.85D-06 NDo=     1
 LinEq1:  Iter=  6 NonCon=     1 RMS=6.70D-08 Max=1.39D-06 NDo=     1
 LinEq1:  Iter=  7 NonCon=     1 RMS=3.40D-08 Max=1.00D-06 NDo=     1
 LinEq1:  Iter=  8 NonCon=     1 RMS=1.99D-08 Max=6.64D-07 NDo=     1
 LinEq1:  Iter=  9 NonCon=     1 RMS=9.17D-09 Max=1.87D-07 NDo=     1
 LinEq1:  Iter= 10 NonCon=     0 RMS=2.76D-09 Max=3.16D-08 NDo=     1
 Linear equations converged to 9.269D-09 9.269D-08 after    10 iterations.
     Minimum is close to point  2 DX=  1.14D-03 DF= -3.33D-11 DXR=  1.14D-03 DFR=  1.31D-06 which will be used.
 LinEq1:  Iter=  0 NonCon=     1 RMS=7.18D-07 Max=7.93D-06 NDo=     1
 LinEq1:  Iter=  1 NonCon=     1 RMS=2.94D-07 Max=5.02D-06 NDo=     1
 LinEq1:  Iter=  2 NonCon=     1 RMS=1.17D-07 Max=3.74D-06 NDo=     1
 LinEq1:  Iter=  3 NonCon=     1 RMS=7.22D-08 Max=2.25D-06 NDo=     1
 LinEq1:  Iter=  4 NonCon=     1 RMS=4.35D-08 Max=1.09D-06 NDo=     1
 LinEq1:  Iter=  5 NonCon=     1 RMS=1.57D-08 Max=2.15D-07 NDo=     1
 LinEq1:  Iter=  6 NonCon=     1 RMS=9.01D-09 Max=1.41D-07 NDo=     1
 LinEq1:  Iter=  7 NonCon=     0 RMS=3.03D-09 Max=7.29D-08 NDo=     1
 Linear equations converged to 8.065D-09 8.065D-08 after     7 iterations.
 QCLLim is confused:  Bigger=T Turned=T
 NLin=  3 IMin12=  1  2 I12=  0  2 IX=  1 XLMin= 0.000D+00 XLMax= 0.000D+00
 X = 0.000D+00 1.000D+00 2.000D+00
 DE= 0.000D+00 2.028D-10 1.054D-07
 LinEq1:  Iter=  0 NonCon=     1 RMS=7.93D-07 Max=1.36D-05 NDo=     1
 LinEq1:  Iter=  1 NonCon=     1 RMS=3.69D-07 Max=8.04D-06 NDo=     1
 LinEq1:  Iter=  2 NonCon=     1 RMS=1.88D-07 Max=3.63D-06 NDo=     1
 LinEq1:  Iter=  3 NonCon=     1 RMS=8.35D-08 Max=2.89D-06 NDo=     1
 LinEq1:  Iter=  4 NonCon=     1 RMS=3.72D-08 Max=1.06D-06 NDo=     1
 LinEq1:  Iter=  5 NonCon=     1 RMS=2.18D-08 Max=5.33D-07 NDo=     1
 LinEq1:  Iter=  6 NonCon=     1 RMS=1.33D-08 Max=2.55D-07 NDo=     1
 LinEq1:  Iter=  7 NonCon=     0 RMS=4.18D-09 Max=5.98D-08 NDo=     1
 Linear equations converged to 9.269D-09 9.269D-08 after     7 iterations.
     Accept linear search using points  1 and  2.
 LinEq1:  Iter=  0 NonCon=     1 RMS=8.16D-07 Max=1.13D-05 NDo=     1
 LinEq1:  Iter=  1 NonCon=     1 RMS=3.75D-07 Max=1.02D-05 NDo=     1
 LinEq1:  Iter=  2 NonCon=     1 RMS=1.58D-07 Max=4.47D-06 NDo=     1
 LinEq1:  Iter=  3 NonCon=     1 RMS=9.59D-08 Max=3.52D-06 NDo=     1
 LinEq1:  Iter=  4 NonCon=     1 RMS=5.44D-08 Max=1.53D-06 NDo=     1
 LinEq1:  Iter=  5 NonCon=     1 RMS=2.59D-08 Max=3.86D-07 NDo=     1
 LinEq1:  Iter=  6 NonCon=     1 RMS=1.12D-08 Max=1.95D-07 NDo=     1
 LinEq1:  Iter=  7 NonCon=     1 RMS=5.13D-09 Max=1.68D-07 NDo=     1
 LinEq1:  Iter=  8 NonCon=     1 RMS=1.28D-09 Max=2.34D-08 NDo=     1
 LinEq1:  Iter=  9 NonCon=     0 RMS=4.38D-10 Max=7.56D-09 NDo=     1
 Linear equations converged to 2.326D-09 2.326D-08 after     9 iterations.
     Accept linear search using points  1 and  2.
 LinEq1:  Iter=  0 NonCon=     1 RMS=1.58D-06 Max=2.69D-05 NDo=     1
 LinEq1:  Iter=  1 NonCon=     1 RMS=6.34D-07 Max=1.16D-05 NDo=     1
 LinEq1:  Iter=  2 NonCon=     1 RMS=2.01D-07 Max=3.61D-06 NDo=     1
 LinEq1:  Iter=  3 NonCon=     1 RMS=9.09D-08 Max=2.41D-06 NDo=     1
 LinEq1:  Iter=  4 NonCon=     1 RMS=5.25D-08 Max=1.49D-06 NDo=     1
 LinEq1:  Iter=  5 NonCon=     1 RMS=2.47D-08 Max=5.62D-07 NDo=     1
 LinEq1:  Iter=  6 NonCon=     1 RMS=1.42D-08 Max=2.49D-07 NDo=     1
 LinEq1:  Iter=  7 NonCon=     1 RMS=7.78D-09 Max=1.47D-07 NDo=     1
 LinEq1:  Iter=  8 NonCon=     1 RMS=2.64D-09 Max=3.97D-08 NDo=     1
 LinEq1:  Iter=  9 NonCon=     0 RMS=9.22D-10 Max=1.73D-08 NDo=     1
 Linear equations converged to 2.999D-09 2.999D-08 after     9 iterations.
     Accept linear search using points  1 and  2.
 LinEq1:  Iter=  0 NonCon=     1 RMS=9.78D-07 Max=2.10D-05 NDo=     1
 LinEq1:  Iter=  1 NonCon=     1 RMS=4.25D-07 Max=7.87D-06 NDo=     1
 LinEq1:  Iter=  2 NonCon=     1 RMS=1.53D-07 Max=2.22D-06 NDo=     1
 LinEq1:  Iter=  3 NonCon=     1 RMS=8.35D-08 Max=2.03D-06 NDo=     1
 LinEq1:  Iter=  4 NonCon=     1 RMS=4.33D-08 Max=1.58D-06 NDo=     1
 LinEq1:  Iter=  5 NonCon=     1 RMS=2.43D-08 Max=6.07D-07 NDo=     1
 LinEq1:  Iter=  6 NonCon=     1 RMS=1.11D-08 Max=2.77D-07 NDo=     1
 LinEq1:  Iter=  7 NonCon=     1 RMS=5.52D-09 Max=1.21D-07 NDo=     1
 LinEq1:  Iter=  8 NonCon=     1 RMS=1.61D-09 Max=3.12D-08 NDo=     1
 LinEq1:  Iter=  9 NonCon=     0 RMS=6.35D-10 Max=1.48D-08 NDo=     1
 Linear equations converged to 1.778D-09 1.778D-08 after     9 iterations.
     Accept linear search using points  1 and  2.
 LinEq1:  Iter=  0 NonCon=     1 RMS=7.07D-07 Max=1.43D-05 NDo=     1
 LinEq1:  Iter=  1 NonCon=     1 RMS=2.89D-07 Max=6.57D-06 NDo=     1
 LinEq1:  Iter=  2 NonCon=     1 RMS=1.09D-07 Max=2.03D-06 NDo=     1
 LinEq1:  Iter=  3 NonCon=     1 RMS=5.63D-08 Max=1.11D-06 NDo=     1
 LinEq1:  Iter=  4 NonCon=     1 RMS=2.75D-08 Max=9.57D-07 NDo=     1
 LinEq1:  Iter=  5 NonCon=     1 RMS=1.47D-08 Max=4.73D-07 NDo=     1
 LinEq1:  Iter=  6 NonCon=     1 RMS=8.96D-09 Max=2.30D-07 NDo=     1
 LinEq1:  Iter=  7 NonCon=     1 RMS=4.10D-09 Max=6.80D-08 NDo=     1
 LinEq1:  Iter=  8 NonCon=     1 RMS=1.05D-09 Max=2.49D-08 NDo=     1
 LinEq1:  Iter=  9 NonCon=     0 RMS=2.50D-10 Max=3.60D-09 NDo=     1
 Linear equations converged to 1.236D-09 1.236D-08 after     9 iterations.
     Accept linear search using points  1 and  2.
 LinEq1:  Iter=  0 NonCon=     1 RMS=8.14D-07 Max=1.51D-05 NDo=     1
 LinEq1:  Iter=  1 NonCon=     1 RMS=3.17D-07 Max=6.79D-06 NDo=     1
 LinEq1:  Iter=  2 NonCon=     1 RMS=8.84D-08 Max=1.33D-06 NDo=     1
 LinEq1:  Iter=  3 NonCon=     1 RMS=4.05D-08 Max=1.14D-06 NDo=     1
 LinEq1:  Iter=  4 NonCon=     1 RMS=2.05D-08 Max=8.27D-07 NDo=     1
 LinEq1:  Iter=  5 NonCon=     1 RMS=1.19D-08 Max=3.49D-07 NDo=     1
 LinEq1:  Iter=  6 NonCon=     1 RMS=4.31D-09 Max=5.60D-08 NDo=     1
 LinEq1:  Iter=  7 NonCon=     1 RMS=1.54D-09 Max=2.34D-08 NDo=     1
 LinEq1:  Iter=  8 NonCon=     1 RMS=7.93D-10 Max=1.57D-08 NDo=     1
 LinEq1:  Iter=  9 NonCon=     0 RMS=2.95D-10 Max=6.33D-09 NDo=     1
 Linear equations converged to 1.480D-09 1.480D-08 after     9 iterations.
     Accept linear search using points  1 and  2.
 LinEq1:  Iter=  0 NonCon=     1 RMS=6.49D-07 Max=1.32D-05 NDo=     1
 LinEq1:  Iter=  1 NonCon=     1 RMS=3.50D-07 Max=7.52D-06 NDo=     1
 LinEq1:  Iter=  2 NonCon=     1 RMS=1.79D-07 Max=2.79D-06 NDo=     1
 LinEq1:  Iter=  3 NonCon=     1 RMS=7.35D-08 Max=1.22D-06 NDo=     1
 LinEq1:  Iter=  4 NonCon=     1 RMS=2.68D-08 Max=6.00D-07 NDo=     1
 LinEq1:  Iter=  5 NonCon=     1 RMS=1.43D-08 Max=4.00D-07 NDo=     1
 LinEq1:  Iter=  6 NonCon=     1 RMS=7.64D-09 Max=2.89D-07 NDo=     1
 LinEq1:  Iter=  7 NonCon=     1 RMS=3.37D-09 Max=9.45D-08 NDo=     1
 LinEq1:  Iter=  8 NonCon=     1 RMS=9.25D-10 Max=1.69D-08 NDo=     1
 LinEq1:  Iter=  9 NonCon=     0 RMS=2.67D-10 Max=4.13D-09 NDo=     1
 Linear equations converged to 1.111D-09 1.111D-08 after     9 iterations.
     Accept linear search using points  1 and  2.
 LinEq1:  Iter=  0 NonCon=     1 RMS=3.26D-07 Max=5.31D-06 NDo=     1
 LinEq1:  Iter=  1 NonCon=     1 RMS=1.40D-07 Max=3.17D-06 NDo=     1
 LinEq1:  Iter=  2 NonCon=     1 RMS=3.77D-08 Max=7.53D-07 NDo=     1
 LinEq1:  Iter=  3 NonCon=     1 RMS=1.56D-08 Max=5.85D-07 NDo=     1
 LinEq1:  Iter=  4 NonCon=     1 RMS=7.58D-09 Max=2.80D-07 NDo=     1
 LinEq1:  Iter=  5 NonCon=     1 RMS=3.45D-09 Max=6.50D-08 NDo=     1
 LinEq1:  Iter=  6 NonCon=     1 RMS=1.72D-09 Max=3.02D-08 NDo=     1
 LinEq1:  Iter=  7 NonCon=     1 RMS=4.81D-10 Max=7.76D-09 NDo=     1
 LinEq1:  Iter=  8 NonCon=     0 RMS=2.04D-10 Max=4.52D-09 NDo=     1
 Linear equations converged to 5.752D-10 5.752D-09 after     8 iterations.
 LinEq1:  Iter=  0 NonCon=     1 RMS=4.10D-07 Max=9.09D-06 NDo=     1
 LinEq1:  Iter=  1 NonCon=     1 RMS=3.23D-07 Max=8.86D-06 NDo=     1
 LinEq1:  Iter=  2 NonCon=     1 RMS=7.96D-08 Max=1.85D-06 NDo=     1
 LinEq1:  Iter=  3 NonCon=     1 RMS=3.08D-08 Max=6.27D-07 NDo=     1
 LinEq1:  Iter=  4 NonCon=     1 RMS=1.54D-08 Max=4.05D-07 NDo=     1
 LinEq1:  Iter=  5 NonCon=     1 RMS=7.34D-09 Max=2.86D-07 NDo=     1
 LinEq1:  Iter=  6 NonCon=     1 RMS=3.65D-09 Max=1.18D-07 NDo=     1
 LinEq1:  Iter=  7 NonCon=     1 RMS=9.87D-10 Max=1.79D-08 NDo=     1
 LinEq1:  Iter=  8 NonCon=     1 RMS=3.24D-10 Max=6.17D-09 NDo=     1
 LinEq1:  Iter=  9 NonCon=     0 RMS=1.07D-10 Max=1.61D-09 NDo=     1
 Linear equations converged to 5.675D-10 5.675D-09 after     9 iterations.
 LinEq1:  Iter=  0 NonCon=     1 RMS=3.60D-07 Max=5.44D-06 NDo=     1
 LinEq1:  Iter=  1 NonCon=     1 RMS=1.56D-07 Max=4.07D-06 NDo=     1
 LinEq1:  Iter=  2 NonCon=     1 RMS=4.60D-08 Max=8.15D-07 NDo=     1
 LinEq1:  Iter=  3 NonCon=     1 RMS=1.69D-08 Max=3.46D-07 NDo=     1
 LinEq1:  Iter=  4 NonCon=     1 RMS=1.08D-08 Max=3.85D-07 NDo=     1
 LinEq1:  Iter=  5 NonCon=     1 RMS=6.12D-09 Max=2.24D-07 NDo=     1
 LinEq1:  Iter=  6 NonCon=     1 RMS=2.74D-09 Max=6.07D-08 NDo=     1
 LinEq1:  Iter=  7 NonCon=     0 RMS=9.00D-10 Max=1.26D-08 NDo=     1
 Linear equations converged to 1.274D-09 1.274D-08 after     7 iterations.
     Minimum is close to point  2 DX=  1.25D-02 DF= -2.27D-13 DXR=  1.24D-02 DFR=  1.20D-04 which will be used.
 LinEq1:  Iter=  0 NonCon=     1 RMS=7.98D-08 Max=1.12D-06 NDo=     1
 LinEq1:  Iter=  1 NonCon=     1 RMS=5.04D-08 Max=1.31D-06 NDo=     1
 LinEq1:  Iter=  2 NonCon=     1 RMS=1.86D-08 Max=5.15D-07 NDo=     1
 LinEq1:  Iter=  3 NonCon=     1 RMS=7.93D-09 Max=2.97D-07 NDo=     1
 LinEq1:  Iter=  4 NonCon=     1 RMS=4.19D-09 Max=1.10D-07 NDo=     1
 LinEq1:  Iter=  5 NonCon=     1 RMS=2.62D-09 Max=5.53D-08 NDo=     1
 LinEq1:  Iter=  6 NonCon=     1 RMS=9.38D-10 Max=2.27D-08 NDo=     1
 LinEq1:  Iter=  7 NonCon=     1 RMS=3.60D-10 Max=6.04D-09 NDo=     1
 LinEq1:  Iter=  8 NonCon=     0 RMS=9.93D-11 Max=2.53D-09 NDo=     1
 Linear equations converged to 3.659D-10 3.659D-09 after     8 iterations.
 LinEq1:  Iter=  0 NonCon=     1 RMS=2.55D-07 Max=6.50D-06 NDo=     1
 LinEq1:  Iter=  1 NonCon=     1 RMS=1.08D-07 Max=2.66D-06 NDo=     1
 LinEq1:  Iter=  2 NonCon=     1 RMS=3.80D-08 Max=7.06D-07 NDo=     1
 LinEq1:  Iter=  3 NonCon=     1 RMS=1.17D-08 Max=1.94D-07 NDo=     1
 LinEq1:  Iter=  4 NonCon=     1 RMS=4.60D-09 Max=1.44D-07 NDo=     1
 LinEq1:  Iter=  5 NonCon=     1 RMS=2.95D-09 Max=9.97D-08 NDo=     1
 LinEq1:  Iter=  6 NonCon=     1 RMS=1.48D-09 Max=4.19D-08 NDo=     1
 LinEq1:  Iter=  7 NonCon=     0 RMS=6.84D-10 Max=1.45D-08 NDo=     1
 Linear equations converged to 2.243D-09 2.243D-08 after     7 iterations.
     Minimum is close to point  2 DX=  2.37D-02 DF= -7.96D-13 DXR=  2.32D-02 DFR=  5.64D-04 which will be used.
 LinEq1:  Iter=  0 NonCon=     1 RMS=2.44D-08 Max=5.17D-07 NDo=     1
 LinEq1:  Iter=  1 NonCon=     1 RMS=1.90D-08 Max=4.77D-07 NDo=     1
 LinEq1:  Iter=  2 NonCon=     1 RMS=7.38D-09 Max=2.50D-07 NDo=     1
 LinEq1:  Iter=  3 NonCon=     1 RMS=3.88D-09 Max=1.22D-07 NDo=     1
 LinEq1:  Iter=  4 NonCon=     1 RMS=2.26D-09 Max=5.12D-08 NDo=     1
 LinEq1:  Iter=  5 NonCon=     1 RMS=9.83D-10 Max=1.98D-08 NDo=     1
 LinEq1:  Iter=  6 NonCon=     1 RMS=2.73D-10 Max=3.88D-09 NDo=     1
 LinEq1:  Iter=  7 NonCon=     1 RMS=8.77D-11 Max=2.48D-09 NDo=     1
 LinEq1:  Iter=  8 NonCon=     0 RMS=2.55D-11 Max=3.93D-10 NDo=     1
 Linear equations converged to 1.730D-10 1.730D-09 after     8 iterations.
 LinEq1:  Iter=  0 NonCon=     1 RMS=2.37D-07 Max=3.66D-06 NDo=     1
 LinEq1:  Iter=  1 NonCon=     1 RMS=9.67D-08 Max=2.96D-06 NDo=     1
 LinEq1:  Iter=  2 NonCon=     1 RMS=3.02D-08 Max=6.40D-07 NDo=     1
 LinEq1:  Iter=  3 NonCon=     1 RMS=1.05D-08 Max=1.66D-07 NDo=     1
 LinEq1:  Iter=  4 NonCon=     1 RMS=5.49D-09 Max=1.06D-07 NDo=     1
 LinEq1:  Iter=  5 NonCon=     1 RMS=2.83D-09 Max=7.48D-08 NDo=     1
 LinEq1:  Iter=  6 NonCon=     1 RMS=1.26D-09 Max=4.48D-08 NDo=     1
 LinEq1:  Iter=  7 NonCon=     0 RMS=4.32D-10 Max=1.15D-08 NDo=     1
 Linear equations converged to 1.276D-09 1.276D-08 after     7 iterations.
[...]
 Frequencies --     18.3257                23.4883                40.2904
 Red. masses --     20.0119                15.9942                15.6784
 Frc consts  --      0.0040                 0.0052                 0.0150
 IR Inten    --      0.0349                 0.0563                 0.0146
  Atom  AN      X      Y      Z        X      Y      Z        X      Y      Z
     1   7    -0.29  -0.27  -0.07    -0.06   0.04  -0.12    -0.37  -0.18  -0.07
     2   8    -0.61   0.38   0.11    -0.11  -0.29   0.28     0.70   0.38   0.14
     3   8    -0.07  -0.15  -0.02     0.65   0.31  -0.00    -0.10  -0.06  -0.02
     4   8    -0.09  -0.19  -0.06    -0.50  -0.14  -0.14    -0.36  -0.18  -0.07
     5  17     0.47   0.09   0.01     0.01   0.04  -0.01     0.04   0.00  -0.00
                      4                      5                      6
                      A                      A                      A
 Frequencies --    313.3923               355.7226               770.1986
 Red. masses --     20.1527                15.1481                18.7377
 Frc consts  --      1.1662                 1.1294                 6.5490
 IR Inten    --      0.1039                 1.8723                14.5987
  Atom  AN      X      Y      Z        X      Y      Z        X      Y      Z
     1   7    -0.10   0.18  -0.01     0.67   0.30   0.12    -0.24   0.50   0.11
     2   8    -0.00  -0.00   0.00     0.00  -0.00   0.00     0.00  -0.00  -0.00
     3   8    -0.32   0.72   0.07    -0.34  -0.14  -0.06     0.10  -0.25   0.06
     4   8     0.04   0.05  -0.32    -0.49  -0.22  -0.09    -0.26   0.40   0.45
     5  17     0.17  -0.43   0.12     0.11   0.04   0.02     0.17  -0.27  -0.28
                      7                      8                      9
                      A                      A                      A
 Frequencies --    829.1108              1023.0426              2005.8339
 Red. masses --     15.4621                15.2814                14.8700
 Frc consts  --      6.2625                 9.4233                35.2495
 IR Inten    --    234.4534               101.3214               257.3976
  Atom  AN      X      Y      Z        X      Y      Z        X      Y      Z
     1   7     0.14  -0.42   0.30     0.28  -0.57  -0.16    -0.13  -0.00   0.74
     2   8     0.00   0.00   0.00     0.00   0.00   0.00     0.00   0.00  -0.00
     3   8     0.05  -0.18   0.18    -0.12   0.36  -0.22     0.08   0.08  -0.64
     4   8    -0.20   0.63  -0.46    -0.18   0.19   0.54     0.03  -0.07  -0.01
     5  17     0.01  -0.04   0.01     0.02  -0.02  -0.08     0.00  -0.00   0.00

 -------------------
 - Thermochemistry -
 -------------------
 Temperature   298.150 Kelvin.  Pressure   1.00000 Atm.
 Atom     1 has atomic number  7 and mass  14.00307
 Atom     2 has atomic number  8 and mass  15.99491
 Atom     3 has atomic number  8 and mass  15.99491
 Atom     4 has atomic number  8 and mass  15.99491
 Atom     5 has atomic number 17 and mass  34.96885
 Molecular mass:    96.95667 amu.
 Principal axes and moments of inertia in atomic units:
                           1         2         3
     Eigenvalues --   437.05454 723.04963 987.10642
           X            0.99992   0.01265   0.00149
           Y           -0.01264   0.99992  -0.00274
           Z           -0.00152   0.00272   1.00000
 This molecule is an asymmetric top.
 Rotational symmetry number  1.
 Warning -- assumption of classical behavior for rotation
           may cause significant error
 Rotational temperatures (Kelvin)      0.19818     0.11979     0.08775
 Rotational constants (GHZ):           4.12933     2.49601     1.82831
 Zero-point vibrational energy      32176.0 (Joules/Mol)
                                    7.69025 (Kcal/Mol)
 Warning -- explicit consideration of   5 degrees of freedom as
           vibrations may cause significant error
 Vibrational temperatures:     26.37    33.79    57.97   450.90   511.81
          (Kelvin)           1108.14  1192.91  1471.93  2885.95
 
 Zero-point correction=                           0.012255 (Hartree/Particle)
 Thermal correction to Energy=                    0.018689
 Thermal correction to Enthalpy=                  0.019633
 Thermal correction to Gibbs Free Energy=        -0.022283
 Sum of electronic and zero-point Energies=           -738.288430
 Sum of electronic and thermal Energies=              -738.281997
 Sum of electronic and thermal Enthalpies=            -738.281053
 Sum of electronic and thermal Free Energies=         -738.322968
 
                     E (Thermal)             CV                S
                      KCal/Mol        Cal/Mol-Kelvin    Cal/Mol-Kelvin
 Total                   11.727             16.795             88.219
 Electronic               0.000              0.000              0.000
 Translational            0.889              2.981             39.626
 Rotational               0.889              2.981             27.236
 Vibrational              9.950             10.833             21.357
 Vibration     1          0.593              1.986              6.808
 Vibration     2          0.593              1.985              6.315
 Vibration     3          0.594              1.981              5.245
 Vibration     4          0.701              1.648              1.344
 Vibration     5          0.731              1.564              1.141
                       Q            Log10(Q)             Ln(Q)
 Total Bot       0.177584D+11         10.249404         23.600124
 Total V=0       0.769827D+16         15.886393         36.579773
 Vib (Bot)       0.236703D-02         -2.625796         -6.046119
 Vib (Bot)    1  0.113042D+02          1.053240          2.425175
 Vib (Bot)    2  0.881773D+01          0.945357          2.176764
 Vib (Bot)    3  0.513519D+01          0.710556          1.636116
 Vib (Bot)    4  0.602181D+00         -0.220273         -0.507197
 Vib (Bot)    5  0.516724D+00         -0.286742         -0.660247
 Vib (V=0)       0.102611D+04          3.011194          6.933529
 Vib (V=0)    1  0.118153D+02          1.072443          2.469392
 Vib (V=0)    2  0.933189D+01          0.969970          2.233438
 Vib (V=0)    3  0.565947D+01          0.752776          1.733330
 Vib (V=0)    4  0.128270D+01          0.108126          0.248969
 Vib (V=0)    5  0.121903D+01          0.086014          0.198055
 Electronic      0.100000D+01          0.000000          0.000000
 Translational   0.375250D+08          7.574320         17.440517
 Rotational      0.199931D+06          5.300879         12.205726
 ***** Axes restored to original set *****
 -------------------------------------------------------------------
 Center     Atomic                   Forces (Hartrees/Bohr)
 Number     Number              X              Y              Z
 -------------------------------------------------------------------
      1        7           0.000104691   -0.000244960    0.000497860
      2        8           0.000005086    0.000003203   -0.000012230
      3        8           0.000014345    0.000001673   -0.000322923
      4        8          -0.000008089    0.000109425   -0.000352712
      5       17          -0.000116034    0.000130659    0.000190005
 -------------------------------------------------------------------
 Cartesian Forces:  Max     0.000497860 RMS     0.000204383
 -------------------------------------------------------------------
 Center     Atomic                Nonadiabatic Coup. (Bohr^-1)
 Number     Number              X              Y              Z
 -------------------------------------------------------------------
      1        7           1.638395628   -3.749103818    2.102464740
      2        8          -0.086592216    0.022029055   -0.236303643
      3        8          -0.298905886    0.799948024   -1.934718627
      4        8          -0.230291427    2.003862167   -1.146652847
      5       17          -1.022091814    0.925076088    1.214657662
 -------------------------------------------------------------------
 Cartesian Nonad. Coup.:  Max     3.749103818 RMS     1.515604158
 FormGI is forming the generalized inverse of G from B-inverse, IUseBI=4.

 GradGradGradGradGradGradGradGradGradGradGradGradGradGradGradGradGradGrad
 Berny optimization.
 Internal  Forces:  Max     0.000318323 RMS     0.000151765
 Search for a local minimum.
 Step number   1 out of a maximum of    2
 All quantities printed in internal units (Hartrees-Bohrs-Radians)
 Second derivative matrix not updated -- analytic derivatives used.
 The second derivative matrix:
                          R1        R2        R3        R4        R5
           R1           0.00112
           R2          -0.00612   1.18619
           R3          -0.00749   0.19275   0.26495
           R4          -0.00068   0.00617   0.00819   0.00096
           R5           0.00006   0.00545   0.04478  -0.00000   0.29662
           A1          -0.00122   0.00798   0.01108   0.00141  -0.00140
           A2          -0.01558   0.08619   0.11405   0.01584  -0.03352
           A3           0.00066  -0.00325   0.03128  -0.00042   0.02482
           A4           0.00154  -0.00247   0.00361  -0.00137   0.00741
           D1          -0.00005   0.01237   0.01724   0.00009   0.00317
           D2           0.00051   0.00218   0.00213  -0.00048  -0.00240
           D3           0.00029  -0.00188   0.03250  -0.00008   0.02400
                          A1        A2        A3        A4        D1
           A1           0.00585
           A2           0.04098   0.65142
           A3           0.00202   0.01371   0.10612
           A4          -0.00476  -0.03256   0.02117   0.01107
           D1          -0.00107   0.00770   0.00294   0.00238   0.00240
           D2          -0.00523   0.03403   0.00052   0.00769   0.00484
           D3           0.00315   0.02182   0.10421   0.01931   0.00258
                          D2        D3
           D2           0.02205
           D3          -0.00108   0.10268
 ITU=  0
     Eigenvalues ---    0.00031   0.00071   0.00110   0.02874   0.16751
     Eigenvalues ---    0.20790   0.33722   0.66251   1.24542
 Angle between quadratic step and forces=  82.14 degrees.
 Linear search not attempted -- first point.
 Iteration  1 RMS(Cart)=  0.03038455 RMS(Int)=  0.00068726
 Iteration  2 RMS(Cart)=  0.00053064 RMS(Int)=  0.00016660
 Iteration  3 RMS(Cart)=  0.00000011 RMS(Int)=  0.00016660
 Variable       Old X    -DE/DX   Delta X   Delta X   Delta X     New X
                                 (Linear)    (Quad)   (Total)
    R1        6.67119  -0.00001   0.00000   0.00129   0.00126   6.67245
    R2        2.13926   0.00032   0.00000   0.00054   0.00054   2.13980
    R3        2.57175  -0.00031   0.00000  -0.00170  -0.00171   2.57004
    R4        6.70290   0.00000   0.00000   0.03075   0.03079   6.73369
    R5        3.12274  -0.00026   0.00000  -0.00078  -0.00078   3.12196
    A1        1.61332  -0.00006   0.00000  -0.04657  -0.04654   1.56677
    A2        2.03166  -0.00007   0.00000   0.00009   0.00009   2.03174
    A3        2.05325   0.00004   0.00000   0.00056   0.00016   2.05342
    A4        1.62250  -0.00002   0.00000  -0.03485  -0.03472   1.58778
    D1       -1.38934  -0.00000   0.00000   0.00988   0.01001  -1.37933
    D2       -0.00682   0.00002   0.00000   0.00089   0.00086  -0.00596
    D3        2.05305   0.00005   0.00000   0.00837   0.00874   2.06179
         Item               Value     Threshold  Converged?
 Maximum Force            0.000318     0.000450     YES
 RMS     Force            0.000152     0.000300     YES
 Maximum Displacement     0.053720     0.001800     NO 
 RMS     Displacement     0.030508     0.001200     NO 
 Predicted change in Energy=-2.410934D-06
                           ----------------------------
                           ! Non-Optimized Parameters !
                           ! (Angstroms and Degrees)  !
 --------------------------                            --------------------------
 ! Name  Definition              Value          Derivative Info.                !
 --------------------------------------------------------------------------------
 ! R1    R(1,2)                  3.5309         -DE/DX =    0.0                 !
 ! R2    R(1,3)                  1.1323         -DE/DX =    0.0003              !
 ! R3    R(1,4)                  1.36           -DE/DX =   -0.0003              !
 ! R4    R(2,4)                  3.5633         -DE/DX =    0.0                 !
 ! R5    R(4,5)                  1.6521         -DE/DX =   -0.0003              !
 ! A1    A(2,1,3)               89.7694         -DE/DX =   -0.0001              !
 ! A2    A(3,1,4)              116.4102         -DE/DX =   -0.0001              !
 ! A3    A(1,4,5)              117.6521         -DE/DX =    0.0                 !
 ! A4    A(2,4,5)               90.9731         -DE/DX =    0.0                 !
 ! D1    D(2,1,3,4)            -79.0297         -DE/DX =    0.0                 !
 ! D2    D(3,1,4,5)             -0.3415         -DE/DX =    0.0                 !
 ! D3    D(5,2,4,1)            118.132          -DE/DX =    0.0                 !
 --------------------------------------------------------------------------------
 GradGradGradGradGradGradGradGradGradGradGradGradGradGradGradGradGradGrad

 -------------------------------------------------------------------
 Center     Atomic                Nonadiabatic Coup. (Bohr^-1)
 Number     Number              X              Y              Z
 -------------------------------------------------------------------
      1        7           1.638395628   -3.749103818    2.102464740
      2        8          -0.086592216    0.022029055   -0.236303643
      3        8          -0.298905886    0.799948024   -1.934718627
      4        8          -0.230291427    2.003862167   -1.146652847
      5       17          -1.022091814    0.925076088    1.214657662
 -------------------------------------------------------------------
 Cartesian Nonad. Coup.:  Max     3.749103818 RMS     1.515604158

 ----------------------------------------------------------------------

 Electric dipole moment (input orientation):
 (Debye = 10**-18 statcoulomb cm , SI units = C m)
                  (au)            (Debye)         (10**-30 SI)
   Tot        0.149334D+00      0.379570D+00      0.126611D+01
   x          0.558567D-01      0.141974D+00      0.473573D+00
   y         -0.110338D+00     -0.280451D+00     -0.935483D+00
   z         -0.837037D-01     -0.212754D+00     -0.709670D+00

 Dipole polarizability, Alpha (input orientation).
 (esu units = cm**3 , SI units = C**2 m**2 J**-1)
 Alpha(0;0):
               (au)            (10**-24 esu)      (10**-40 SI)
   iso        0.352298D+02      0.522052D+01      0.580861D+01
   aniso      0.157642D+02      0.233601D+01      0.259916D+01
   xx         0.326525D+02      0.483860D+01      0.538367D+01
   yx        -0.782690D+01     -0.115983D+01     -0.129048D+01
   yy         0.402801D+02      0.596890D+01      0.664130D+01
   zx        -0.154253D+01     -0.228580D+00     -0.254329D+00
   zy         0.254357D+00      0.376918D-01      0.419377D-01
   zz         0.327568D+02      0.485406D+01      0.540087D+01

 ----------------------------------------------------------------------

 Dipole orientation:
     7          0.40335064         -0.95205483         -2.36001313
     8         -5.16347509          2.14299845         -0.37610148
     8         -0.15521951         -2.77482514         -1.38947127
     8          1.40208659          0.88281210         -0.86011112
    17          1.67444009          0.27181924          2.19013656

 Electric dipole moment (dipole orientation):
 (Debye = 10**-18 statcoulomb cm , SI units = C m)
                  (au)            (Debye)         (10**-30 SI)
   Tot        0.149334D+00      0.379570D+00      0.126611D+01
   x          0.000000D+00      0.000000D+00      0.000000D+00
   y          0.000000D+00      0.000000D+00      0.000000D+00
   z          0.149334D+00      0.379570D+00      0.126611D+01

 Dipole polarizability, Alpha (dipole orientation).
 (esu units = cm**3 , SI units = C**2 m**2 J**-1)
 Alpha(0;0):
               (au)            (10**-24 esu)      (10**-40 SI)
   iso        0.352298D+02      0.522052D+01      0.580861D+01
   aniso      0.157642D+02      0.233601D+01      0.259916D+01
   xx         0.293658D+02      0.435157D+01      0.484177D+01
   yx         0.306466D+01      0.454136D+00      0.505294D+00
   yy         0.342907D+02      0.508135D+01      0.565377D+01
   zx         0.420188D+01      0.622655D+00      0.692797D+00
   zy         0.387464D+01      0.574162D+00      0.638841D+00
   zz         0.420330D+02      0.622865D+01      0.693030D+01

 ----------------------------------------------------------------------
 1\1\GINC-GRA305\Freq\RCIS-FC\6-311++G(3df,3pd)\Cl1N1O3\ALREBEI\19-Feb-
 2020\0\\#N Geom=AllCheck Guess=TCheck SCRF=Check GenChk RCIS(FC,Read)/
 6-311++G(3df,3pd) Freq\\Title Card Required\\0,1\N,-0.1835922078,1.288
 1000778,0.4075963998\O,-2.7627026197,-1.0741538417,-0.0725720237\O,-0.
 0897500104,1.4834095426,-0.7035213326\O,0.4224562887,0.1639595517,0.87
 78074919\Cl,1.2146615492,-0.7929203305,-0.2119125354\\Version=ES64L-G1
 6RevA.03\State=1-A\HF=-738.2626692\RMSD=1.230e-09\RMSF=2.044e-04\ZeroP
 oint=0.0122552\Thermal=0.0186886\Dipole=0.0558567,-0.1103378,-0.083703
 7\DipoleDeriv=0.3419964,-0.4850788,0.1861513,-0.5788633,1.2733666,-0.5
 644469,0.5990777,-1.2509255,0.9346846,-0.0048831,0.0013807,0.0008932,-
 0.0084476,-0.0010977,0.0011979,0.0005747,0.000314,0.0022987,-0.0539553
 ,-0.0074113,0.0585008,0.1528877,-0.3495578,0.1133695,-0.4750341,0.9940
 558,-0.7407987,-0.362297,0.4518802,-0.1873836,0.4305826,-0.9574169,0.3
 747135,-0.139081,0.3016241,-0.3218306,0.0791391,0.0392292,-0.0581617,0
 .0038406,0.0347058,0.0751661,0.0144628,-0.0450683,0.125646\Polar=32.65
 25188,-7.8269011,40.2801298,-1.5425331,0.2543566,32.7568318\PG=C01 [X(
 Cl1N1O3)]\NImag=0\\0.15853568,-0.13549265,0.25672531,-0.20988463,-0.00
 651577,1.14412361,-0.00003993,-0.00018399,0.00035638,0.00048202,-0.000
 16493,-0.00019096,0.00020780,0.00028054,0.00025964,0.00001970,-0.00008
 136,-0.00005194,0.00007669,0.00004453,0.00006122,-0.07257684,0.0427533
 0,0.13907641,-0.00009493,-0.00006791,0.00001200,0.05418701,0.03815630,
 -0.11144696,0.09672470,-0.00004317,-0.00003596,0.00005034,-0.04455128,
 0.15187454,0.15467558,0.07210054,-1.05109489,-0.00030675,-0.00021831,0
 .00004021,-0.08087645,-0.22006639,1.13666482,-0.07107401,0.05365627,0.
 04899913,-0.00038062,-0.00012242,-0.00013419,0.02022252,0.01485370,-0.
 06955442,0.11325809,0.05515631,-0.10021454,-0.05624734,-0.00000171,-0.
 00002908,-0.00004815,0.00873948,-0.04338529,0.14626330,-0.12695002,0.2
 3169838,0.04373535,-0.04718792,-0.10597576,-0.00006625,-0.00002344,-0.
 00005776,-0.04954401,0.11327907,-0.09142560,-0.05855097,-0.00488940,0.
 35375833,-0.01484490,0.03926707,0.02145270,0.00003346,0.00007473,0.000
 02579,-0.00173775,-0.00841555,-0.00393797,-0.06202598,0.06305593,0.064
 42589,0.07857518,0.04234498,-0.04487285,-0.03416939,-0.00005168,-0.000
 00363,0.00003464,-0.00687359,0.00299367,0.00192086,0.05856247,-0.08806
 947,-0.06117832,-0.09398218,0.12995228,0.01145399,-0.01831548,0.012998
 98,-0.00006007,-0.00001058,0.00000827,-0.00866795,0.01001227,0.0058154
 7,0.07924044,-0.08507841,-0.15629920,-0.08196641,0.09339220,0.13747647
 \\-0.00010469,0.00024496,-0.00049786,-0.00000509,-0.00000320,0.0000122
 3,-0.00001435,-0.00000167,0.00032292,0.00000809,-0.00010943,0.00035271
 ,0.00011603,-0.00013066,-0.00019000\\\@


 TOM, TOM, THE BURGLAR'S SON
 STOLE A MACHINE AND AWAY HE RUN
 THE JOB WAS NEAT, BUT TOM GOT BEAT
 BY THE TIME HE GOT HOME IT WAS OBSOLETE.
 Job cpu time:       0 days  0 hours 11 minutes 39.6 seconds.
 Elapsed time:       0 days  0 hours  5 minutes 55.8 seconds.
 File lengths (MBytes):  RWF=    141 Int=      0 D2E=      0 Chk=      8 Scr=      1
 Normal termination of Gaussian 16 at Wed Feb 19 13:03:23 2020.
