 Entering Gaussian System, Link 0=g16
 Initial command:
 /opt/software/gaussian/g16.a03/l1.exe "/localscratch/alrebei.28376399.0/Gau-21469.inp" -scrdir="/localscratch/alrebei.28376399.0/"
 Entering Link 1 = /opt/software/gaussian/g16.a03/l1.exe PID=     21471.
  
 Copyright (c) 1988,1990,1992,1993,1995,1998,2003,2009,2016,
            Gaussian, Inc.  All Rights Reserved.
  
 This is part of the Gaussian(R) 16 program.  It is based on
 the Gaussian(R) 09 system (copyright 2009, Gaussian, Inc.),
 the Gaussian(R) 03 system (copyright 2003, Gaussian, Inc.),
 the Gaussian(R) 98 system (copyright 1998, Gaussian, Inc.),
 the Gaussian(R) 94 system (copyright 1995, Gaussian, Inc.),
 the Gaussian 92(TM) system (copyright 1992, Gaussian, Inc.),
 the Gaussian 90(TM) system (copyright 1990, Gaussian, Inc.),
 the Gaussian 88(TM) system (copyright 1988, Gaussian, Inc.),
 the Gaussian 86(TM) system (copyright 1986, Carnegie Mellon
 University), and the Gaussian 82(TM) system (copyright 1983,
 Carnegie Mellon University). Gaussian is a federally registered
 trademark of Gaussian, Inc.
  
 This software contains proprietary and confidential information,
 including trade secrets, belonging to Gaussian, Inc.
  
 This software is provided under written license and may be
 used, copied, transmitted, or stored only in accord with that
 written license.
  
 The following legend is applicable only to US Government
 contracts under FAR:
  
                    RESTRICTED RIGHTS LEGEND
  
 Use, reproduction and disclosure by the US Government is
 subject to restrictions as set forth in subparagraphs (a)
 and (c) of the Commercial Computer Software - Restricted
 Rights clause in FAR 52.227-19.
  
 Gaussian, Inc.
 340 Quinnipiac St., Bldg. 40, Wallingford CT 06492
  
  
 ---------------------------------------------------------------
 Warning -- This program may not be used in any manner that
 competes with the business of Gaussian, Inc. or will provide
 assistance to any competitor of Gaussian, Inc.  The licensee
 of this program is prohibited from giving any competitor of
 Gaussian, Inc. access to this program.  By using this program,
 the user acknowledges that Gaussian, Inc. is engaged in the
 business of creating and licensing software in the field of
 computational chemistry and represents and warrants to the
 licensee that it is not a competitor of Gaussian, Inc. and that
 it will not use this program in any manner prohibited above.
 ---------------------------------------------------------------
  

 Cite this work as:
 Gaussian 16, Revision A.03,
 M. J. Frisch, G. W. Trucks, H. B. Schlegel, G. E. Scuseria, 
 M. A. Robb, J. R. Cheeseman, G. Scalmani, V. Barone, 
 G. A. Petersson, H. Nakatsuji, X. Li, M. Caricato, A. V. Marenich, 
 J. Bloino, B. G. Janesko, R. Gomperts, B. Mennucci, H. P. Hratchian, 
 J. V. Ortiz, A. F. Izmaylov, J. L. Sonnenberg, D. Williams-Young, 
 F. Ding, F. Lipparini, F. Egidi, J. Goings, B. Peng, A. Petrone, 
 T. Henderson, D. Ranasinghe, V. G. Zakrzewski, J. Gao, N. Rega, 
 G. Zheng, W. Liang, M. Hada, M. Ehara, K. Toyota, R. Fukuda, 
 J. Hasegawa, M. Ishida, T. Nakajima, Y. Honda, O. Kitao, H. Nakai, 
 T. Vreven, K. Throssell, J. A. Montgomery, Jr., J. E. Peralta, 
 F. Ogliaro, M. J. Bearpark, J. J. Heyd, E. N. Brothers, K. N. Kudin, 
 V. N. Staroverov, T. A. Keith, R. Kobayashi, J. Normand, 
 K. Raghavachari, A. P. Rendell, J. C. Burant, S. S. Iyengar, 
 J. Tomasi, M. Cossi, J. M. Millam, M. Klene, C. Adamo, R. Cammi, 
 J. W. Ochterski, R. L. Martin, K. Morokuma, O. Farkas, 
 J. B. Foresman, and D. J. Fox, Gaussian, Inc., Wallingford CT, 2016.
 
 ******************************************
 Gaussian 16:  ES64L-G16RevA.03 25-Dec-2016
                24-Feb-2020 
 ******************************************
 %nprocshared=2
 Will use up to    2 processors via shared memory.
 %mem=2GB
 ---------------------------------------------------------------
 # opt=(calcfc,ts,noeigentest) freq cis/6-311++g(3df,3pd) scf=qc
 ---------------------------------------------------------------
 1/5=1,10=4,11=1,18=20,38=1/1,3;
 2/9=110,12=2,17=6,18=5,40=1/2;
 3/5=4,6=6,7=1616,11=9,25=1,30=1,71=2,140=1/1,2,3,8;
 4//1;
 5/5=2,8=3,38=5/8;
 8/6=1,10=2/1;
 9/15=3,42=1/14;
 10/5=3004,20=4/2;
 11/6=1,8=1,12=-1,16=1,42=3/1,2,10;
 10/6=3,21=1/2,14;
 6/7=2,8=2,9=2,10=2/1;
 7/10=1,12=6,13=8,18=20,25=1,44=2/1,2,3,16;
 1/5=1,10=4,11=1,18=20/3(2);
 2/9=110/2;
 99//99;
 2/9=110/2;
 3/5=4,6=6,7=1616,11=9,25=1,30=1,71=1/1,2,3,8;
 4/5=5,16=3,69=1/1;
 5/5=2,8=3,38=5/8;
 8/6=1,10=2/1;
 9/15=2,42=1,49=4/14;
 10/5=4/2;
 7/12=6,13=5/1,2,3,16;
 1/5=1,11=1,18=20/3(-8);
 2/9=110/2;
 6/7=2,8=2,9=2,10=2/1;
 99//99;
 -------------------
 Title Card Required
 -------------------
 Symbolic Z-matrix:
 Charge =  0 Multiplicity = 1
 N                     1.34152   0.03946  -0.00001 
 O                     1.54759   1.17333  -0.00001 
 O                     1.99628  -0.90941   0. 
 O                    -0.36346  -0.3905   -0.00002 
 Cl                   -2.04906   0.04332   0.00002 
 
 Add virtual bond connecting atoms O4         and N1         Dist= 3.32D+00.

 GradGradGradGradGradGradGradGradGradGradGradGradGradGradGradGradGradGrad
 Berny optimization.
 Initialization pass.
                           ----------------------------
                           !    Initial Parameters    !
                           ! (Angstroms and Degrees)  !
 --------------------------                            --------------------------
 ! Name  Definition              Value          Derivative Info.                !
 --------------------------------------------------------------------------------
 ! R1    R(1,2)                  1.1524         calculate D2E/DX2 analytically  !
 ! R2    R(1,3)                  1.1529         calculate D2E/DX2 analytically  !
 ! R3    R(1,4)                  1.7584         calculate D2E/DX2 analytically  !
 ! R4    R(4,5)                  1.7405         calculate D2E/DX2 analytically  !
 ! A1    A(2,1,3)              135.0921         calculate D2E/DX2 analytically  !
 ! A2    A(2,1,4)              114.4542         calculate D2E/DX2 analytically  !
 ! A3    A(3,1,4)              110.4537         calculate D2E/DX2 analytically  !
 ! A4    A(1,4,5)              151.4135         calculate D2E/DX2 analytically  !
 ! D1    D(2,1,3,4)           -179.9998         calculate D2E/DX2 analytically  !
 ! D2    D(2,1,4,5)             -0.0037         calculate D2E/DX2 analytically  !
 ! D3    D(3,1,4,5)            179.9964         calculate D2E/DX2 analytically  !
 --------------------------------------------------------------------------------
 Trust Radius=3.00D-01 FncErr=1.00D-07 GrdErr=1.00D-07 EigMax=2.50D+02 EigMin=1.00D-04
 Number of steps in this run=     21 maximum allowed number of steps=    100.
 Search for a saddle point of order  1.
 GradGradGradGradGradGradGradGradGradGradGradGradGradGradGradGradGradGrad

                          Input orientation:                          
 ---------------------------------------------------------------------
 Center     Atomic      Atomic             Coordinates (Angstroms)
 Number     Number       Type             X           Y           Z
 ---------------------------------------------------------------------
      1          7           0        1.341522    0.039457   -0.000006
      2          8           0        1.547594    1.173329   -0.000007
      3          8           0        1.996283   -0.909414    0.000000
      4          8           0       -0.363456   -0.390500   -0.000021
      5         17           0       -2.049060    0.043322    0.000016
 ---------------------------------------------------------------------
                    Distance matrix (angstroms):
                    1          2          3          4          5
     1  N    0.000000
     2  O    1.152446   0.000000
     3  O    1.152852   2.130526   0.000000
     4  O    1.758355   2.469347   2.416121   0.000000
     5  Cl   3.390584   3.769991   4.156020   1.740535   0.000000
 Stoichiometry    ClNO3
 Framework group  C1[X(ClNO3)]
 Deg. of freedom     9
 Full point group                 C1      NOp   1
 Largest Abelian subgroup         C1      NOp   1
 Largest concise Abelian subgroup C1      NOp   1
                         Standard orientation:                         
 ---------------------------------------------------------------------
 Center     Atomic      Atomic             Coordinates (Angstroms)
 Number     Number       Type             X           Y           Z
 ---------------------------------------------------------------------
      1          7           0       -1.341522    0.039457    0.000006
      2          8           0       -1.547594    1.173329    0.000007
      3          8           0       -1.996283   -0.909414    0.000000
      4          8           0        0.363456   -0.390500    0.000021
      5         17           0        2.049060    0.043322   -0.000016
 ---------------------------------------------------------------------
 Rotational constants (GHZ):          13.3786639           1.8301193           1.6098954
 Standard basis: 6-311++G(3df,3pd) (5D, 7F)
 There are   233 symmetry adapted cartesian basis functions of A   symmetry.
 There are   203 symmetry adapted basis functions of A   symmetry.
   203 basis functions,   307 primitive gaussians,   233 cartesian basis functions
    24 alpha electrons       24 beta electrons
       nuclear repulsion energy       208.2278145220 Hartrees.
 NAtoms=    5 NActive=    5 NUniq=    5 SFac= 1.00D+00 NAtFMM=   60 NAOKFM=F Big=F
 Integral buffers will be    131072 words long.
 Raffenetti 1 integral format.
 Two-electron integral symmetry is turned on.
 One-electron integrals computed using PRISM.
 NBasis=   203 RedAO= T EigKep=  1.27D-04  NBF=   203
 NBsUse=   203 1.00D-06 EigRej= -1.00D+00 NBFU=   203
 ExpMin= 4.83D-02 ExpMax= 1.06D+05 ExpMxC= 3.62D+03 IAcc=3 IRadAn=         5 AccDes= 0.00D+00
 Harris functional with IExCor=  205 and IRadAn=       5 diagonalized for initial guess.
 HarFok:  IExCor=  205 AccDes= 0.00D+00 IRadAn=         5 IDoV= 1 UseB2=F ITyADJ=14
 ICtDFT=  3500011 ScaDFX=  1.000000  1.000000  1.000000  1.000000
 FoFCou: FMM=F IPFlag=           0 FMFlag=      100000 FMFlg1=           0
         NFxFlg=           0 DoJE=T BraDBF=F KetDBF=T FulRan=T
         wScrn=  0.000000 ICntrl=       500 IOpCl=  0 I1Cent=   200000004 NGrid=           0
         NMat0=    1 NMatS0=      1 NMatT0=    0 NMatD0=    1 NMtDS0=    0 NMtDT0=    0
 Petite list used in FoFCou.
 Keep R1 ints in memory in canonical form, NReq=220787261.
 Gradient too large for Newton-Raphson -- use scaled steepest descent instead.
 Gradient too large for Newton-Raphson -- use scaled steepest descent instead.
     Minimum is close to point  3 DX=  3.07D-02 DF= -2.87D-05 DXR=  3.69D-02 DFR=  1.36D-03 which will be used.
 Gradient too large for Newton-Raphson -- use scaled steepest descent instead.
     Accept linear search using points  1 and  2.
 Gradient too large for Newton-Raphson -- use scaled steepest descent instead.
     Accept linear search using points  2 and  3.
 Gradient too large for Newton-Raphson -- use scaled steepest descent instead.
     Accept linear search using points  1 and  2.
 LinEq1:  Iter=  0 NonCon=     1 RMS=1.20D-04 Max=3.38D-03 NDo=     1
 AX will form     1 AO Fock derivatives at one time.
 LinEq1:  Iter=  1 NonCon=     1 RMS=5.77D-05 Max=1.82D-03 NDo=     1
 LinEq1:  Iter=  2 NonCon=     1 RMS=2.05D-05 Max=6.95D-04 NDo=     1
 LinEq1:  Iter=  3 NonCon=     1 RMS=4.87D-06 Max=1.18D-04 NDo=     1
 LinEq1:  Iter=  4 NonCon=     1 RMS=2.63D-06 Max=7.29D-05 NDo=     1
 LinEq1:  Iter=  5 NonCon=     1 RMS=1.13D-06 Max=3.45D-05 NDo=     1
 LinEq1:  Iter=  6 NonCon=     1 RMS=4.98D-07 Max=8.21D-06 NDo=     1
 LinEq1:  Iter=  7 NonCon=     1 RMS=1.22D-07 Max=2.84D-06 NDo=     1
 LinEq1:  Iter=  8 NonCon=     1 RMS=7.12D-08 Max=2.72D-06 NDo=     1
 LinEq1:  Iter=  9 NonCon=     1 RMS=2.85D-08 Max=7.72D-07 NDo=     1
 LinEq1:  Iter= 10 NonCon=     1 RMS=9.01D-09 Max=1.57D-07 NDo=     1
 LinEq1:  Iter= 11 NonCon=     0 RMS=2.51D-09 Max=4.41D-08 NDo=     1
 Linear equations converged to 9.269D-09 9.269D-08 after    11 iterations.
     Accept linear search using points  1 and  2.
     Minimum is close to point  2 DX= -1.00D-02 DF= -2.18D-08 DXR=  1.01D-02 DFR=  1.03D-04 which will be used.
 LinEq1:  Iter=  0 NonCon=     1 RMS=2.90D-06 Max=8.72D-05 NDo=     1
 LinEq1:  Iter=  1 NonCon=     1 RMS=2.02D-06 Max=7.75D-05 NDo=     1
 LinEq1:  Iter=  2 NonCon=     1 RMS=4.45D-07 Max=1.21D-05 NDo=     1
 LinEq1:  Iter=  3 NonCon=     1 RMS=3.02D-07 Max=7.78D-06 NDo=     1
 LinEq1:  Iter=  4 NonCon=     1 RMS=9.38D-08 Max=2.15D-06 NDo=     1
 LinEq1:  Iter=  5 NonCon=     1 RMS=4.24D-08 Max=1.73D-06 NDo=     1
 LinEq1:  Iter=  6 NonCon=     1 RMS=1.38D-08 Max=2.03D-07 NDo=     1
 LinEq1:  Iter=  7 NonCon=     1 RMS=6.63D-09 Max=2.13D-07 NDo=     1
 LinEq1:  Iter=  8 NonCon=     1 RMS=3.38D-09 Max=7.63D-08 NDo=     1
 LinEq1:  Iter=  9 NonCon=     0 RMS=1.14D-09 Max=1.53D-08 NDo=     1
 Linear equations converged to 2.573D-09 2.573D-08 after     9 iterations.
     Minimum is close to point  2 DX=  6.08D-04 DF= -1.14D-13 DXR=  6.08D-04 DFR=  1.87D-06 which will be used.
 SCF Done:  E(RHF) =  -738.313580987     a.u. after    8 cycles
            Convg  =    0.3619D-06                    38 Fock formations.
              S**2 =  0.0000                  -V/T =  2.0009
 ExpMin= 4.83D-02 ExpMax= 1.06D+05 ExpMxC= 3.62D+03 IAcc=3 IRadAn=         5 AccDes= 0.00D+00
 HarFok:  IExCor=  205 AccDes= 0.00D+00 IRadAn=         5 IDoV=-2 UseB2=F ITyADJ=14
 ICtDFT= 12500011 ScaDFX=  1.000000  1.000000  1.000000  1.000000
 Range of M.O.s used for correlation:    10   203
 NBasis=   203 NAE=    24 NBE=    24 NFC=     9 NFV=     0
 NROrb=    194 NOA=    15 NOB=    15 NVA=   179 NVB=   179

 **** Warning!!: The largest alpha MO coefficient is  0.33526832D+02

 Orbital symmetries:
       Occupied  (A) (A) (A) (A) (A) (A) (A) (A) (A) (A) (A) (A)
                 (A) (A) (A) (A) (A) (A) (A) (A) (A) (A) (A) (A)
       Virtual   (A) (A) (A) (A) (A) (A) (A) (A) (A) (A) (A) (A)
                 (A) (A) (A) (A) (A) (A) (A) (A) (A) (A) (A) (A)
                 (A) (A) (A) (A) (A) (A) (A) (A) (A) (A) (A) (A)
                 (A) (A) (A) (A) (A) (A) (A) (A) (A) (A) (A) (A)
                 (A) (A) (A) (A) (A) (A) (A) (A) (A) (A) (A) (A)
                 (A) (A) (A) (A) (A) (A) (A) (A) (A) (A) (A) (A)
                 (A) (A) (A) (A) (A) (A) (A) (A) (A) (A) (A) (A)
                 (A) (A) (A) (A) (A) (A) (A) (A) (A) (A) (A) (A)
                 (A) (A) (A) (A) (A) (A) (A) (A) (A) (A) (A) (A)
                 (A) (A) (A) (A) (A) (A) (A) (A) (A) (A) (A) (A)
                 (A) (A) (A) (A) (A) (A) (A) (A) (A) (A) (A) (A)
                 (A) (A) (A) (A) (A) (A) (A) (A) (A) (A) (A) (A)
                 (A) (A) (A) (A) (A) (A) (A) (A) (A) (A) (A) (A)
                 (A) (A) (A) (A) (A) (A) (A) (A) (A) (A) (A) (A)
                 (A) (A) (A) (A) (A) (A) (A) (A) (A) (A) (A)
    12 initial guesses have been made.
 Convergence on wavefunction:    0.000001000000000
 Iteration     1 Dimension    12 NMult     0 NNew     12
 CISAX will form    12 AO SS matrices at one time.
 New state      1 was old state      2
 New state      2 was old state      1
 New state      3 was old state      8
 Iteration     2 Dimension    24 NMult    12 NNew     12
 Iteration     3 Dimension    27 NMult    24 NNew      3
 Iteration     4 Dimension    30 NMult    27 NNew      3
 Iteration     5 Dimension    33 NMult    30 NNew      3
 Iteration     6 Dimension    36 NMult    33 NNew      3
 Iteration     7 Dimension    39 NMult    36 NNew      3
 Iteration     8 Dimension    42 NMult    39 NNew      3
 Iteration     9 Dimension    45 NMult    42 NNew      3
 Iteration    10 Dimension    47 NMult    45 NNew      2
 Iteration    11 Dimension    49 NMult    47 NNew      2
 ***********************************************************************
 Excited states from <AA,BB:AA,BB> singles matrix:
 ***********************************************************************
 
 Ground to excited state transition densities written to RWF  633
 Ground to excited state transition electric dipole moments (Au):
       state          X           Y           Z        Dip. S.      Osc.
         1         0.0000     -0.0000     -0.0260      0.0007      0.0000
         2        -0.7487      0.1568      0.0000      0.5852      0.0474
         3        -0.0000      0.0000      0.0129      0.0002      0.0000
 Ground to excited state transition velocity dipole moments (Au):
       state          X           Y           Z        Dip. S.      Osc.
         1        -0.0000      0.0000     -0.0854      0.0073      0.0511
         2         0.0533     -0.0530     -0.0000      0.0057      0.0310
         3         0.0000      0.0000      0.0204      0.0004      0.0014
 Ground to excited state transition magnetic dipole moments (Au):
       state          X           Y           Z
         1        -0.2826     -0.4853      0.0000
         2         0.0000      0.0000      0.6650
         3        -0.2787      0.2007     -0.0000
 Ground to excited state transition velocity quadrupole moments (Au):
       state          XX          YY          ZZ          XY          XZ          YZ
         1        -0.0000      0.0000      0.0000     -0.0000     -0.1690      0.0186
         2         0.1401     -0.1090      0.0241     -0.1595     -0.0000      0.0000
         3         0.0000      0.0000     -0.0000      0.0000      0.1497      0.0107
 <0|del|b> * <b|rxdel|0> + <0|del|b> * <b|delr+rdel|0>
 Rotatory Strengths (R) in cgs (10**-40 erg-esu-cm/Gauss)
       state          XX          YY          ZZ    R(velocity)    E-M Angle
         1        -0.0120     -0.0113      0.0016     -0.0072       90.00
         2        -0.0092     -0.0007     -0.0061     -0.0054       90.00
         3         0.0006     -0.0016      0.0008     -0.0000       90.00
 1/2[<0|r|b>*<b|rxdel|0> + (<0|rxdel|b>*<b|r|0>)*]
 Rotatory Strengths (R) in cgs (10**-40 erg-esu-cm/Gauss)
       state          XX          YY          ZZ     R(length)
         1         0.0008     -0.0012      0.0007      0.0001
         2         0.0032     -0.0055     -0.0008     -0.0010
         3        -0.0002     -0.0013      0.0000     -0.0005
  1/2[<0|del|b>*<b|r|0> + (<0|r|b>*<b|del|0>)*] (Au)
       state          X           Y           Z        Dip. S.   Osc.(frdel)
         1        -0.0000     -0.0000      0.0022     -0.0022     -0.0015
         2        -0.0399     -0.0083     -0.0000      0.0482      0.0322
         3        -0.0000      0.0000      0.0003     -0.0003     -0.0002

 Excitation energies and oscillator strengths:
 
 Excited State   1:      Singlet-A      2.5904 eV  478.63 nm  f=0.0000  <S**2>=0.000
      19 -> 25        -0.18222
      23 -> 25         0.65939
 This state for optimization and/or second-order correction.
 Total Energy, E(CIS/TDA) =  -738.218384688    
 Copying the excited state density for this state as the 1-particle RhoCI density.
 
 Excited State   2:      Singlet-A      3.3059 eV  375.04 nm  f=0.0474  <S**2>=0.000
      21 -> 25         0.12766
      24 -> 25         0.65410
      24 -> 35         0.10128
 
 Excited State   3:      Singlet-A      5.3490 eV  231.79 nm  f=0.0000  <S**2>=0.000
      19 -> 25        -0.47825
      23 -> 28         0.18094
      23 -> 29        -0.19187
      23 -> 31        -0.20245
      23 -> 34         0.27032
      23 -> 35        -0.20902
 SavETr:  write IOETrn=   770 NScale= 10 NData=  16 NLR=1 NState=    3 LETran=      64.
          IDoAtm=11111
          Differentiating once with respect to electric field.
                with respect to dipole field.
          Differentiating once with respect to nuclear coordinates.
 Keep R1 ints in memory in canonical form, NReq=220788045.
          There are     1 degrees of freedom in the 1st order CPHF.  IDoFFX=0 NUNeed=     1.
 LinEq1:  Iter=  0 NonCon=     1 RMS=7.74D-03 Max=2.29D-01 NDo=     1
 AX will form     1 AO Fock derivatives at one time.
 LinEq1:  Iter=  1 NonCon=     1 RMS=3.31D-03 Max=6.62D-02 NDo=     1
 LinEq1:  Iter=  2 NonCon=     1 RMS=1.42D-03 Max=3.84D-02 NDo=     1
 LinEq1:  Iter=  3 NonCon=     1 RMS=6.94D-04 Max=2.52D-02 NDo=     1
 LinEq1:  Iter=  4 NonCon=     1 RMS=3.34D-04 Max=8.93D-03 NDo=     1
 LinEq1:  Iter=  5 NonCon=     1 RMS=1.24D-04 Max=2.26D-03 NDo=     1
 LinEq1:  Iter=  6 NonCon=     1 RMS=3.93D-05 Max=6.99D-04 NDo=     1
 LinEq1:  Iter=  7 NonCon=     1 RMS=1.42D-05 Max=4.36D-04 NDo=     1
 LinEq1:  Iter=  8 NonCon=     1 RMS=8.03D-06 Max=2.03D-04 NDo=     1
 LinEq1:  Iter=  9 NonCon=     1 RMS=3.72D-06 Max=7.63D-05 NDo=     1
 LinEq1:  Iter= 10 NonCon=     1 RMS=9.19D-07 Max=1.63D-05 NDo=     1
 LinEq1:  Iter= 11 NonCon=     1 RMS=2.19D-07 Max=4.64D-06 NDo=     1
 LinEq1:  Iter= 12 NonCon=     1 RMS=4.79D-08 Max=7.44D-07 NDo=     1
 LinEq1:  Iter= 13 NonCon=     1 RMS=1.35D-08 Max=1.84D-07 NDo=     1
 LinEq1:  Iter= 14 NonCon=     1 RMS=3.16D-09 Max=5.82D-08 NDo=     1
 LinEq1:  Iter= 15 NonCon=     1 RMS=9.21D-10 Max=1.59D-08 NDo=     1
 LinEq1:  Iter= 16 NonCon=     1 RMS=2.41D-10 Max=4.73D-09 NDo=     1
 LinEq1:  Iter= 17 NonCon=     1 RMS=5.05D-11 Max=1.02D-09 NDo=     1
 LinEq1:  Iter= 18 NonCon=     0 RMS=1.16D-11 Max=2.15D-10 NDo=     1
 Linear equations converged to 1.000D-10 1.000D-09 after    18 iterations.
          There are     1 degrees of freedom in the 1st order CPHF.  IDoFFX=0 NUNeed=     1.
 LinEq1:  Iter=  0 NonCon=     1 RMS=5.14D-02 Max=3.26D+00 NDo=     1
 LinEq1:  Iter=  1 NonCon=     1 RMS=5.34D-03 Max=1.00D-01 NDo=     1
 LinEq1:  Iter=  2 NonCon=     1 RMS=1.52D-03 Max=2.72D-02 NDo=     1
 LinEq1:  Iter=  3 NonCon=     1 RMS=4.15D-04 Max=1.23D-02 NDo=     1
 LinEq1:  Iter=  4 NonCon=     1 RMS=9.04D-05 Max=1.68D-03 NDo=     1
 LinEq1:  Iter=  5 NonCon=     1 RMS=2.12D-05 Max=5.15D-04 NDo=     1
 LinEq1:  Iter=  6 NonCon=     1 RMS=4.78D-06 Max=9.43D-05 NDo=     1
 LinEq1:  Iter=  7 NonCon=     1 RMS=1.26D-06 Max=2.18D-05 NDo=     1
 LinEq1:  Iter=  8 NonCon=     1 RMS=5.03D-07 Max=1.40D-05 NDo=     1
 LinEq1:  Iter=  9 NonCon=     1 RMS=2.89D-07 Max=5.94D-06 NDo=     1
 LinEq1:  Iter= 10 NonCon=     1 RMS=7.43D-08 Max=1.55D-06 NDo=     1
 LinEq1:  Iter= 11 NonCon=     1 RMS=1.90D-08 Max=5.08D-07 NDo=     1
 LinEq1:  Iter= 12 NonCon=     1 RMS=1.19D-08 Max=2.81D-07 NDo=     1
 LinEq1:  Iter= 13 NonCon=     1 RMS=4.17D-09 Max=1.12D-07 NDo=     1
 LinEq1:  Iter= 14 NonCon=     1 RMS=1.61D-09 Max=2.96D-08 NDo=     1
 LinEq1:  Iter= 15 NonCon=     1 RMS=8.30D-10 Max=1.30D-08 NDo=     1
 LinEq1:  Iter= 16 NonCon=     1 RMS=1.26D-10 Max=2.74D-09 NDo=     1
 LinEq1:  Iter= 17 NonCon=     0 RMS=2.50D-11 Max=4.87D-10 NDo=     1
 Linear equations converged to 1.000D-10 1.000D-09 after    17 iterations.
 End of Minotr F.D. properties file   721 does not exist.
 End of Minotr F.D. properties file   722 does not exist.
 End of Minotr F.D. properties file   788 does not exist.
 Symmetrizing basis deriv contribution to polar:
 IMax=3 JMax=2 DiffMx= 0.00D+00
 G2DrvN: will do     6 centers at a time, making    1 passes.
 Calling FoFCou, ICntrl=  3107 FMM=F I1Cent=   0 AccDes= 0.00D+00.
 G2DrvN: will do     6 centers at a time, making    1 passes.
 Calling FoFCou, ICntrl=  3107 FMM=F I1Cent=   0 AccDes= 0.00D+00.
 G2DrvN: will do     6 centers at a time, making    1 passes.
 Calling FoFCou, ICntrl=  3107 FMM=F I1Cent=   0 AccDes= 0.00D+00.
 End of G2Drv F.D. properties file   721 does not exist.
 End of G2Drv F.D. properties file   722 does not exist.
 End of G2Drv F.D. properties file   788 does not exist.
          IDoAtm=11111
          Differentiating once with respect to electric field.
                with respect to dipole field.
          Differentiating once with respect to nuclear coordinates.
 Keep R1 ints in memory in canonical form, NReq=220788045.
          There are    18 degrees of freedom in the 1st order CPHF.  IDoFFX=6 NUNeed=    18.
     15 vectors produced by pass  0 Test12= 2.39D-14 5.56D-09 XBig12= 2.92D+01 3.51D+00.
 AX will form    15 AO Fock derivatives at one time.
     15 vectors produced by pass  1 Test12= 2.39D-14 5.56D-09 XBig12= 2.24D+00 3.76D-01.
     15 vectors produced by pass  2 Test12= 2.39D-14 5.56D-09 XBig12= 2.24D-01 1.39D-01.
     15 vectors produced by pass  3 Test12= 2.39D-14 5.56D-09 XBig12= 1.18D-02 2.83D-02.
     15 vectors produced by pass  4 Test12= 2.39D-14 5.56D-09 XBig12= 2.75D-04 4.11D-03.
     15 vectors produced by pass  5 Test12= 2.39D-14 5.56D-09 XBig12= 4.04D-06 3.89D-04.
     15 vectors produced by pass  6 Test12= 2.39D-14 5.56D-09 XBig12= 3.62D-08 3.29D-05.
     15 vectors produced by pass  7 Test12= 2.39D-14 5.56D-09 XBig12= 3.77D-10 3.00D-06.
      8 vectors produced by pass  8 Test12= 2.39D-14 5.56D-09 XBig12= 3.06D-12 3.38D-07.
      3 vectors produced by pass  9 Test12= 2.39D-14 5.56D-09 XBig12= 2.83D-14 3.53D-08.
 InvSVY:  IOpt=1 It=  1 EMax= 1.22D-15
 Solved reduced A of dimension   131 with    15 vectors.
 Isotropic polarizability for W=    0.000000       52.69 Bohr**3.
 End of Minotr F.D. properties file   721 does not exist.
 End of Minotr F.D. properties file   722 does not exist.
 End of Minotr F.D. properties file   788 does not exist.
 This link is doing    18 degrees of freedom
 Form MO integral derivatives with frozen-active canonical formalism.
 CISSec: MDV=     268434413
 Doing CIS/TDA second derivatives, IDoFFX=6 IOneXC=4 IRadAn=         1.
 Frozen orbitals handled with amplitudes over full window.
 CISAX will form    18 AO SS matrices at one time.
     15 vectors produced by pass  0 Test12= 1.49D-14 5.56D-09 XBig12= 7.29D+00 1.23D+00.
 AX will form    15 AO Fock derivatives at one time.
     15 vectors produced by pass  1 Test12= 1.49D-14 5.56D-09 XBig12= 2.22D-01 2.10D-01.
     15 vectors produced by pass  2 Test12= 1.49D-14 5.56D-09 XBig12= 2.64D-02 1.09D-01.
     15 vectors produced by pass  3 Test12= 1.49D-14 5.56D-09 XBig12= 7.59D-04 8.65D-03.
     15 vectors produced by pass  4 Test12= 1.49D-14 5.56D-09 XBig12= 7.27D-06 7.94D-04.
     15 vectors produced by pass  5 Test12= 1.49D-14 5.56D-09 XBig12= 1.10D-07 8.14D-05.
     15 vectors produced by pass  6 Test12= 1.49D-14 5.56D-09 XBig12= 1.44D-09 8.85D-06.
     13 vectors produced by pass  7 Test12= 1.49D-14 5.56D-09 XBig12= 1.59D-11 1.10D-06.
      6 vectors produced by pass  8 Test12= 1.49D-14 5.56D-09 XBig12= 1.28D-13 8.00D-08.
      2 vectors produced by pass  9 Test12= 1.49D-14 5.56D-09 XBig12= 1.56D-15 8.38D-09.
 InvSVY:  IOpt=1 It=  1 EMax= 1.33D-15
 Solved reduced A of dimension   126 with    15 vectors.
 SavDET:  read IOETrn=   770 NScale= 10 NData=  16 NLR=1 NState=    3 NDeriv=    0 LETran=      64.
 SavDET: write IOETrn=   770 NScale= 10 NData=  16 NLR=1 NState=    3 NDeriv=   18 LETran=     352.
 TDDxLx will form    18 C1x/S1x matrices at one time.
 Interchange theorem applied.

 **********************************************************************

            Population analysis using the SCF density.

 **********************************************************************

 Orbital symmetries:
       Occupied  (A) (A) (A) (A) (A) (A) (A) (A) (A) (A) (A) (A)
                 (A) (A) (A) (A) (A) (A) (A) (A) (A) (A) (A) (A)
       Virtual   (A) (A) (A) (A) (A) (A) (A) (A) (A) (A) (A) (A)
                 (A) (A) (A) (A) (A) (A) (A) (A) (A) (A) (A) (A)
                 (A) (A) (A) (A) (A) (A) (A) (A) (A) (A) (A) (A)
                 (A) (A) (A) (A) (A) (A) (A) (A) (A) (A) (A) (A)
                 (A) (A) (A) (A) (A) (A) (A) (A) (A) (A) (A) (A)
                 (A) (A) (A) (A) (A) (A) (A) (A) (A) (A) (A) (A)
                 (A) (A) (A) (A) (A) (A) (A) (A) (A) (A) (A) (A)
                 (A) (A) (A) (A) (A) (A) (A) (A) (A) (A) (A) (A)
                 (A) (A) (A) (A) (A) (A) (A) (A) (A) (A) (A) (A)
                 (A) (A) (A) (A) (A) (A) (A) (A) (A) (A) (A) (A)
                 (A) (A) (A) (A) (A) (A) (A) (A) (A) (A) (A) (A)
                 (A) (A) (A) (A) (A) (A) (A) (A) (A) (A) (A) (A)
                 (A) (A) (A) (A) (A) (A) (A) (A) (A) (A) (A) (A)
                 (A) (A) (A) (A) (A) (A) (A) (A) (A) (A) (A) (A)
                 (A) (A) (A) (A) (A) (A) (A) (A) (A) (A) (A)
 The electronic state is 1-A.
 Alpha  occ. eigenvalues -- -104.90338 -20.73187 -20.71990 -20.63686 -15.98938
 Alpha  occ. eigenvalues --  -10.62247  -8.09036  -8.08699  -8.08681  -1.75943
 Alpha  occ. eigenvalues --   -1.56621  -1.33939  -1.06718  -0.94901  -0.85000
 Alpha  occ. eigenvalues --   -0.84593  -0.83960  -0.60902  -0.58695  -0.57172
 Alpha  occ. eigenvalues --   -0.56281  -0.55503  -0.44659  -0.43383
 Alpha virt. eigenvalues --   -0.04194   0.05802   0.08160   0.10255   0.11696
 Alpha virt. eigenvalues --    0.12160   0.12231   0.14913   0.17530   0.19317
 Alpha virt. eigenvalues --    0.21126   0.23757   0.26224   0.28624   0.31391
 Alpha virt. eigenvalues --    0.32639   0.32829   0.35957   0.36382   0.38307
 Alpha virt. eigenvalues --    0.40752   0.42603   0.44163   0.45143   0.45807
 Alpha virt. eigenvalues --    0.49345   0.53312   0.54086   0.56952   0.59795
 Alpha virt. eigenvalues --    0.64494   0.67663   0.69467   0.73868   0.74320
 Alpha virt. eigenvalues --    0.78573   0.84525   0.87181   0.89486   0.96629
 Alpha virt. eigenvalues --    1.03363   1.08471   1.10241   1.10796   1.14107
 Alpha virt. eigenvalues --    1.16843   1.17967   1.19132   1.21382   1.22556
 Alpha virt. eigenvalues --    1.24303   1.25169   1.25493   1.28800   1.32424
 Alpha virt. eigenvalues --    1.35006   1.37595   1.38395   1.40061   1.43694
 Alpha virt. eigenvalues --    1.44739   1.52124   1.54004   1.59968   1.64818
 Alpha virt. eigenvalues --    1.65900   1.71210   1.71681   1.74345   1.92829
 Alpha virt. eigenvalues --    2.05227   2.13452   2.27731   2.37056   2.37078
 Alpha virt. eigenvalues --    2.39639   2.40428   2.45884   2.46773   2.47738
 Alpha virt. eigenvalues --    2.50941   2.54803   2.56332   2.57114   2.69857
 Alpha virt. eigenvalues --    2.70050   2.79523   2.95018   2.98551   3.17405
 Alpha virt. eigenvalues --    3.40217   3.43542   3.49067   3.66093   3.68438
 Alpha virt. eigenvalues --    3.76884   3.79539   3.81588   3.88409   3.89237
 Alpha virt. eigenvalues --    3.94778   3.96342   3.97512   4.03712   4.07000
 Alpha virt. eigenvalues --    4.12581   4.30447   4.33306   4.35930   4.41150
 Alpha virt. eigenvalues --    4.50101   4.79535   4.87929   5.21169   5.27412
 Alpha virt. eigenvalues --    5.34769   5.35439   5.36812   5.37481   5.41416
 Alpha virt. eigenvalues --    5.41726   5.46039   5.46556   5.49298   5.50185
 Alpha virt. eigenvalues --    5.53453   5.59381   5.60988   5.61209   5.61998
 Alpha virt. eigenvalues --    5.62984   5.68647   5.75292   5.82604   5.85664
 Alpha virt. eigenvalues --    5.87771   5.90877   6.02544   6.02847   6.08560
 Alpha virt. eigenvalues --    6.17839   6.21862   6.27397   6.70743   6.79270
 Alpha virt. eigenvalues --    6.93256   7.16531   7.27491   7.73491   8.52129
 Alpha virt. eigenvalues --   10.48027  10.57324  10.66717  10.83648  11.23969
 Alpha virt. eigenvalues --   11.28106  14.88808  14.90047  14.91108  14.91401
 Alpha virt. eigenvalues --   14.97227  14.99492  15.06025  15.10502  15.20548
 Alpha virt. eigenvalues --   15.27090  15.35328  15.36547  15.51347  15.73249
 Alpha virt. eigenvalues --   16.01675  26.69052  26.74035  27.84004  37.94786
 Alpha virt. eigenvalues --   51.75500  52.16744  52.20702 219.46338
          Condensed to atoms (all electrons):
               1          2          3          4          5
     1  N    6.674168  -0.582549  -0.439680   0.098608  -0.015422
     2  O   -0.582549   9.206311  -0.015042  -0.113468   0.009738
     3  O   -0.439680  -0.015042   9.067412  -0.099502  -0.002313
     4  O    0.098608  -0.113468  -0.099502   8.543158  -0.129849
     5  Cl  -0.015422   0.009738  -0.002313  -0.129849  17.087908
 Mulliken charges:
               1
     1  N    1.264875
     2  O   -0.504990
     3  O   -0.510875
     4  O   -0.298947
     5  Cl   0.049938
 Sum of Mulliken charges =   0.00000
 Mulliken charges with hydrogens summed into heavy atoms:
               1
     1  N    1.264875
     2  O   -0.504990
     3  O   -0.510875
     4  O   -0.298947
     5  Cl   0.049938
 APT charges:
               1
     1  N    2.199357
     2  O   -1.105544
     3  O   -1.145419
     4  O    0.494300
     5  Cl  -0.442694
 Sum of APT charges =   0.00000
 APT charges with hydrogens summed into heavy atoms:
               1
     1  N    2.199357
     2  O   -1.105544
     3  O   -1.145419
     4  O    0.494300
     5  Cl  -0.442694
 Electronic spatial extent (au):  <R**2>=            627.0000
 Charge=              0.0000 electrons
 Dipole moment (field-independent basis, Debye):
    X=             -1.0595    Y=              0.5711    Z=             -0.0000  Tot=              1.2036
 Quadrupole moment (field-independent basis, Debye-Ang):
   XX=            -30.0468   YY=            -35.7945   ZZ=            -33.1631
   XY=              0.2462   XZ=             -0.0000   YZ=              0.0000
 Traceless Quadrupole moment (field-independent basis, Debye-Ang):
   XX=              2.9547   YY=             -2.7930   ZZ=             -0.1617
   XY=              0.2462   XZ=             -0.0000   YZ=              0.0000
 Octapole moment (field-independent basis, Debye-Ang**2):
  XXX=              3.2181  YYY=             -0.0076  ZZZ=              0.0001  XYY=             -1.7380
  XXY=              0.2271  XXZ=             -0.0001  XZZ=             -5.3342  YZZ=              0.1895
  YYZ=              0.0000  XYZ=             -0.0000
 Hexadecapole moment (field-independent basis, Debye-Ang**3):
 XXXX=           -556.4250 YYYY=           -103.7133 ZZZZ=            -29.8546 XXXY=              2.5132
 XXXZ=              0.0009 YYYX=             -0.0714 YYYZ=              0.0000 ZZZX=              0.0015
 ZZZY=              0.0001 XXYY=           -121.5632 XXZZ=           -105.5581 YYZZ=            -22.4095
 XXYZ=             -0.0001 YYXZ=              0.0005 ZZXY=             -0.3678
 N-N= 2.082278145220D+02 E-N=-2.169011867046D+03  KE= 7.376304969713D+02
  Exact polarizability: 108.631   2.312  38.769  -0.001  -0.000  24.872
 Approx polarizability:  67.330   2.396  41.313  -0.000  -0.000  25.230
 Calling FoFJK, ICntrl=  10105147 FMM=F ISym2X=0 I1Cent= 0 IOpClX= 0 NMat=1 NMatS=1 NMatT=0.
 Calling FoFJK, ICntrl=  10002147 FMM=F ISym2X=0 I1Cent= 0 IOpClX= 0 NMat=1 NMatS=1 NMatT=0.
 ***** Axes restored to original set *****
 -------------------------------------------------------------------
 Center     Atomic                   Forces (Hartrees/Bohr)
 Number     Number              X              Y              Z
 -------------------------------------------------------------------
      1        7           0.005358229   -0.000000535   -0.000000486
      2        8          -0.001866058   -0.006378925    0.000000110
      3        8          -0.004263006    0.005582326    0.000000250
      4        8          -0.012912161    0.004683558    0.000000621
      5       17           0.013682995   -0.003886424   -0.000000495
 -------------------------------------------------------------------
 Cartesian Forces:  Max     0.013682995 RMS     0.005849258
 -------------------------------------------------------------------
 Center     Atomic                Nonadiabatic Coup. (Bohr^-1)
 Number     Number              X              Y              Z
 -------------------------------------------------------------------
      1        7          -0.000000076    0.000024586   -0.510155145
      2        8           0.000007822    0.000003197    0.086359671
      3        8          -0.000013187    0.000000938    0.098546780
      4        8           0.000006197   -0.000035665    0.349215133
      5       17          -0.000003450    0.000006380   -0.109382502
 -------------------------------------------------------------------
 Cartesian Nonad. Coup.:  Max     0.510155145 RMS     0.165598606
 FormGI is forming the generalized inverse of G from B-inverse, IUseBI=4.

 GradGradGradGradGradGradGradGradGradGradGradGradGradGradGradGradGradGrad
 Berny optimization.
 Internal  Forces:  Max     0.014219893 RMS     0.005209288
 Search for a saddle point.
 Step number   1 out of a maximum of   21
 All quantities printed in internal units (Hartrees-Bohrs-Radians)
 Swapping is turned off.
 Second derivative matrix not updated -- analytic derivatives used.
 The second derivative matrix:
                          R1        R2        R3        R4        A1
           R1           0.91116
           R2           0.17606   0.91905
           R3           0.00846   0.00381  -0.04131
           R4           0.04631   0.04351   0.17411   0.04667
           A1           0.07718   0.07255  -0.01517  -0.03380   0.19512
           A2          -0.03507  -0.05373   0.00616   0.01526  -0.09235
           A3          -0.04211  -0.01882   0.00901   0.01854  -0.10277
           A4           0.01802   0.02029  -0.02414   0.02147  -0.01695
           D1          -0.00000   0.00000  -0.00000  -0.00000  -0.00000
           D2           0.00000   0.00000   0.00000   0.00000   0.00000
           D3          -0.00000   0.00000   0.00000   0.00000  -0.00000
                          A2        A3        A4        D1        D2
           A2           0.11537
           A3          -0.02302   0.12578
           A4           0.00159   0.01537   0.03349
           D1           0.00000   0.00000  -0.00000   0.03081
           D2          -0.00000   0.00000  -0.00000  -0.01219   0.00511
           D3          -0.00000   0.00000  -0.00000   0.01171  -0.00434
                          D3
           D3           0.00474
 ITU=  0
     Eigenvalues ---   -0.18262   0.00058   0.03383   0.04008   0.14194
     Eigenvalues ---    0.15771   0.29902   0.73982   1.11561
 Eigenvectors required to have negative eigenvalues:
                          R3        R4        A4        A1        R2
   1                    0.77587  -0.61360   0.14251  -0.01940   0.01832
                          R1        A2        A3        D1        D3
   1                    0.01671   0.01428   0.00512   0.00000   0.00000
 RFO step:  Lambda0=3.407332633D-04 Lambda=-7.98932412D-04.
 Linear search not attempted -- option 19 set.
 Iteration  1 RMS(Cart)=  0.02860177 RMS(Int)=  0.00001025
 Iteration  2 RMS(Cart)=  0.00001238 RMS(Int)=  0.00000000
 Iteration  3 RMS(Cart)=  0.00000000 RMS(Int)=  0.00000000
 Variable       Old X    -DE/DX   Delta X   Delta X   Delta X     New X
                                 (Linear)    (Quad)   (Total)
    R1        2.17781  -0.00661   0.00000  -0.00415  -0.00415   2.17366
    R2        2.17857  -0.00702   0.00000  -0.00544  -0.00544   2.17313
    R3        3.32281  -0.00094   0.00000  -0.07320  -0.07320   3.24961
    R4        3.28913  -0.01422   0.00000  -0.02270  -0.02270   3.26644
    A1        2.35780   0.00075   0.00000  -0.00130  -0.00130   2.35650
    A2        1.99760  -0.00076   0.00000  -0.00355  -0.00355   1.99405
    A3        1.92778   0.00001   0.00000   0.00486   0.00486   1.93264
    A4        2.64266   0.00116   0.00000  -0.00085  -0.00085   2.64181
    D1       -3.14159  -0.00000   0.00000  -0.00000  -0.00000   3.14159
    D2       -0.00006   0.00000   0.00000   0.00007   0.00007   0.00001
    D3        3.14153  -0.00000   0.00000   0.00007   0.00007  -3.14159
         Item               Value     Threshold  Converged?
 Maximum Force            0.014220     0.000450     NO 
 RMS     Force            0.005209     0.000300     NO 
 Maximum Displacement     0.061265     0.001800     NO 
 RMS     Displacement     0.028603     0.001200     NO 
 Predicted change in Energy=-2.304186D-04
 GradGradGradGradGradGradGradGradGradGradGradGradGradGradGradGradGradGrad

                          Input orientation:                          
 ---------------------------------------------------------------------
 Center     Atomic      Atomic             Coordinates (Angstroms)
 Number     Number       Type             X           Y           Z
 ---------------------------------------------------------------------
      1          7           0        1.324386    0.035268   -0.000007
      2          8           0        1.525894    1.167729   -0.000006
      3          8           0        1.982222   -0.907964   -0.000009
      4          8           0       -0.342978   -0.385435    0.000001
      5         17           0       -2.016640    0.046596    0.000003
 ---------------------------------------------------------------------
                    Distance matrix (angstroms):
                    1          2          3          4          5
     1  N    0.000000
     2  O    1.150249   0.000000
     3  O    1.149971   2.125261   0.000000
     4  O    1.719620   2.430021   2.383189   0.000000
     5  Cl   3.341045   3.715708   4.111214   1.728524   0.000000
 Stoichiometry    ClNO3
 Framework group  C1[X(ClNO3)]
 Deg. of freedom     9
 Full point group                 C1      NOp   1
 Largest Abelian subgroup         C1      NOp   1
 Largest concise Abelian subgroup C1      NOp   1
                         Standard orientation:                         
 ---------------------------------------------------------------------
 Center     Atomic      Atomic             Coordinates (Angstroms)
 Number     Number       Type             X           Y           Z
 ---------------------------------------------------------------------
      1          7           0       -1.317835    0.038703    0.000004
      2          8           0       -1.515788    1.171791    0.000004
      3          8           0       -1.978628   -0.902459    0.000007
      4          8           0        0.348201   -0.387231   -0.000004
      5         17           0        2.023210    0.039545   -0.000005
 ---------------------------------------------------------------------
 Rotational constants (GHZ):          13.4899699           1.8806297           1.6505302
 Standard basis: 6-311++G(3df,3pd) (5D, 7F)
 There are   233 symmetry adapted cartesian basis functions of A   symmetry.
 There are   203 symmetry adapted basis functions of A   symmetry.
   203 basis functions,   307 primitive gaussians,   233 cartesian basis functions
    24 alpha electrons       24 beta electrons
       nuclear repulsion energy       210.2063036589 Hartrees.
 NAtoms=    5 NActive=    5 NUniq=    5 SFac= 1.00D+00 NAtFMM=   60 NAOKFM=F Big=F
 Integral buffers will be    131072 words long.
 Raffenetti 1 integral format.
 Two-electron integral symmetry is turned on.
 One-electron integrals computed using PRISM.
 NBasis=   203 RedAO= T EigKep=  1.23D-04  NBF=   203
 NBsUse=   203 1.00D-06 EigRej= -1.00D+00 NBFU=   203
 Initial guess from the checkpoint file:  "/localscratch/alrebei.28376399.0/Gau-21471.chk"
 B after Tr=     0.000000    0.000000    0.000000
         Rot=    0.999999   -0.000000    0.000001    0.001347 Ang=  -0.15 deg.
 ExpMin= 4.83D-02 ExpMax= 1.06D+05 ExpMxC= 3.62D+03 IAcc=2 IRadAn=         4 AccDes= 0.00D+00
 Harris functional with IExCor=  205 and IRadAn=       4 diagonalized for initial guess.
 HarFok:  IExCor=  205 AccDes= 0.00D+00 IRadAn=         4 IDoV= 1 UseB2=F ITyADJ=14
 ICtDFT=  3500011 ScaDFX=  1.000000  1.000000  1.000000  1.000000
 FoFCou: FMM=F IPFlag=           0 FMFlag=      100000 FMFlg1=           0
         NFxFlg=           0 DoJE=T BraDBF=F KetDBF=T FulRan=T
         wScrn=  0.000000 ICntrl=       500 IOpCl=  0 I1Cent=   200000004 NGrid=           0
         NMat0=    1 NMatS0=      1 NMatT0=    0 NMatD0=    1 NMtDS0=    0 NMtDT0=    0
 Petite list used in FoFCou.
 Keep R1 ints in memory in canonical form, NReq=220787261.
 Gradient too large for Newton-Raphson -- use scaled steepest descent instead.
 Gradient too large for Newton-Raphson -- use scaled steepest descent instead.
     Minimum is close to point  3 DX= -1.66D-02 DF= -4.71D-07 DXR=  9.04D-02 DFR=  8.25D-03 which will be used.
 Gradient too large for Newton-Raphson -- use scaled steepest descent instead.
 Gradient too large for Newton-Raphson -- use scaled steepest descent instead.
 Gradient too large for Newton-Raphson -- use scaled steepest descent instead.
 Gradient too large for Newton-Raphson -- use scaled steepest descent instead.
     Accept linear search using points  1 and  2.
 Gradient too large for Newton-Raphson -- use scaled steepest descent instead.
     Accept linear search using points  3 and  4.
 Gradient too large for Newton-Raphson -- use scaled steepest descent instead.
 Gradient too large for Newton-Raphson -- use scaled steepest descent instead.
     Minimum is close to point  2 DX=  1.64D-03 DF= -1.93D-10 DXR=  4.09D-03 DFR=  1.68D-05 which will be used.
 Gradient too large for Newton-Raphson -- use scaled steepest descent instead.
     Accept linear search using points  1 and  2.
 Gradient too large for Newton-Raphson -- use scaled steepest descent instead.
 Gradient too large for Newton-Raphson -- use scaled steepest descent instead.
     Minimum is close to point  4 DX= -5.28D-08 DF=  0.00D+00 DXR=  5.73D-07 DFR=  0.00D+00 which will be used.
 LinEq1:  Iter=  0 NonCon=     1 RMS=8.03D-05 Max=3.23D-03 NDo=     1
 AX will form     1 AO Fock derivatives at one time.
 LinEq1:  Iter=  1 NonCon=     1 RMS=1.59D-05 Max=4.43D-04 NDo=     1
 LinEq1:  Iter=  2 NonCon=     1 RMS=7.11D-06 Max=1.69D-04 NDo=     1
 LinEq1:  Iter=  3 NonCon=     1 RMS=3.08D-06 Max=6.25D-05 NDo=     1
 LinEq1:  Iter=  4 NonCon=     1 RMS=1.69D-06 Max=5.70D-05 NDo=     1
 LinEq1:  Iter=  5 NonCon=     1 RMS=6.47D-07 Max=1.75D-05 NDo=     1
 LinEq1:  Iter=  6 NonCon=     1 RMS=3.45D-07 Max=8.09D-06 NDo=     1
 LinEq1:  Iter=  7 NonCon=     1 RMS=1.12D-07 Max=1.55D-06 NDo=     1
 LinEq1:  Iter=  8 NonCon=     1 RMS=3.49D-08 Max=7.51D-07 NDo=     1
 LinEq1:  Iter=  9 NonCon=     1 RMS=1.04D-08 Max=1.43D-07 NDo=     1
 LinEq1:  Iter= 10 NonCon=     1 RMS=6.28D-09 Max=2.30D-07 NDo=     1
 LinEq1:  Iter= 11 NonCon=     0 RMS=2.07D-09 Max=2.97D-08 NDo=     1
 Linear equations converged to 9.269D-09 9.269D-08 after    11 iterations.
     Accept linear search using points  1 and  2.
     Minimum is close to point  2 DX= -9.71D-04 DF= -7.96D-11 DXR=  9.72D-04 DFR=  9.44D-07 which will be used.
 LinEq1:  Iter=  0 NonCon=     1 RMS=5.19D-07 Max=1.24D-05 NDo=     1
 LinEq1:  Iter=  1 NonCon=     1 RMS=2.48D-07 Max=6.09D-06 NDo=     1
 LinEq1:  Iter=  2 NonCon=     1 RMS=8.27D-08 Max=1.49D-06 NDo=     1
 LinEq1:  Iter=  3 NonCon=     1 RMS=4.56D-08 Max=1.14D-06 NDo=     1
 LinEq1:  Iter=  4 NonCon=     1 RMS=1.99D-08 Max=5.27D-07 NDo=     1
 LinEq1:  Iter=  5 NonCon=     1 RMS=7.16D-09 Max=1.18D-07 NDo=     1
 LinEq1:  Iter=  6 NonCon=     1 RMS=2.56D-09 Max=7.29D-08 NDo=     1
 LinEq1:  Iter=  7 NonCon=     1 RMS=8.04D-10 Max=1.66D-08 NDo=     1
 LinEq1:  Iter=  8 NonCon=     1 RMS=3.62D-10 Max=9.78D-09 NDo=     1
 LinEq1:  Iter=  9 NonCon=     0 RMS=1.91D-10 Max=4.95D-09 NDo=     1
 Linear equations converged to 5.671D-10 5.671D-09 after     9 iterations.
 SCF Done:  E(RHF) =  -738.319879148     a.u. after   15 cycles
            Convg  =    0.4555D-07                    59 Fock formations.
              S**2 =  0.0000                  -V/T =  2.0008
 ExpMin= 4.83D-02 ExpMax= 1.06D+05 ExpMxC= 3.62D+03 IAcc=3 IRadAn=         5 AccDes= 0.00D+00
 HarFok:  IExCor=  205 AccDes= 0.00D+00 IRadAn=         5 IDoV=-2 UseB2=F ITyADJ=14
 ICtDFT= 12500011 ScaDFX=  1.000000  1.000000  1.000000  1.000000
 Range of M.O.s used for correlation:    10   203
 NBasis=   203 NAE=    24 NBE=    24 NFC=     9 NFV=     0
 NROrb=    194 NOA=    15 NOB=    15 NVA=   179 NVB=   179

 **** Warning!!: The largest alpha MO coefficient is  0.32370744D+02

 Orbital symmetries:
       Occupied  (A) (A) (A) (A) (A) (A) (A) (A) (A) (A) (A) (A)
                 (A) (A) (A) (A) (A) (A) (A) (A) (A) (A) (A) (A)
       Virtual   (A) (A) (A) (A) (A) (A) (A) (A) (A) (A) (A) (A)
                 (A) (A) (A) (A) (A) (A) (A) (A) (A) (A) (A) (A)
                 (A) (A) (A) (A) (A) (A) (A) (A) (A) (A) (A) (A)
                 (A) (A) (A) (A) (A) (A) (A) (A) (A) (A) (A) (A)
                 (A) (A) (A) (A) (A) (A) (A) (A) (A) (A) (A) (A)
                 (A) (A) (A) (A) (A) (A) (A) (A) (A) (A) (A) (A)
                 (A) (A) (A) (A) (A) (A) (A) (A) (A) (A) (A) (A)
                 (A) (A) (A) (A) (A) (A) (A) (A) (A) (A) (A) (A)
                 (A) (A) (A) (A) (A) (A) (A) (A) (A) (A) (A) (A)
                 (A) (A) (A) (A) (A) (A) (A) (A) (A) (A) (A) (A)
                 (A) (A) (A) (A) (A) (A) (A) (A) (A) (A) (A) (A)
                 (A) (A) (A) (A) (A) (A) (A) (A) (A) (A) (A) (A)
                 (A) (A) (A) (A) (A) (A) (A) (A) (A) (A) (A) (A)
                 (A) (A) (A) (A) (A) (A) (A) (A) (A) (A) (A) (A)
                 (A) (A) (A) (A) (A) (A) (A) (A) (A) (A) (A)
 Generating guess from densities on rwf.
 Convergence on wavefunction:    0.000001000000000
 Iteration     1 Dimension     3 NMult     0 NNew      3
 CISAX will form     3 AO SS matrices at one time.
 Iteration     2 Dimension     6 NMult     3 NNew      3
 Iteration     3 Dimension     9 NMult     6 NNew      3
 Iteration     4 Dimension    12 NMult     9 NNew      3
 Iteration     5 Dimension    15 NMult    12 NNew      3
 Iteration     6 Dimension    18 NMult    15 NNew      3
 Iteration     7 Dimension    21 NMult    18 NNew      3
 Iteration     8 Dimension    24 NMult    21 NNew      3
 Iteration     9 Dimension    27 NMult    24 NNew      3
 Iteration    10 Dimension    30 NMult    27 NNew      3
 Iteration    11 Dimension    32 NMult    30 NNew      2
 Iteration    12 Dimension    34 NMult    32 NNew      2
 Iteration    13 Dimension    35 NMult    34 NNew      1
 Iteration    14 Dimension    36 NMult    35 NNew      1
 Iteration    15 Dimension    37 NMult    36 NNew      1
 Iteration    16 Dimension    38 NMult    37 NNew      1
 Iteration    17 Dimension    39 NMult    38 NNew      1
 ***********************************************************************
 Excited states from <AA,BB:AA,BB> singles matrix:
 ***********************************************************************
 
 Ground to excited state transition densities written to RWF  633
 Ground to excited state transition electric dipole moments (Au):
       state          X           Y           Z        Dip. S.      Osc.
         1        -0.0000      0.0000     -0.0316      0.0010      0.0001
         2        -0.6638      0.1437      0.0000      0.4612      0.0385
         3        -0.0000     -0.0000      0.0126      0.0002      0.0000
 Ground to excited state transition velocity dipole moments (Au):
       state          X           Y           Z        Dip. S.      Osc.
         1        -0.0000      0.0000     -0.0881      0.0078      0.0511
         2         0.0504     -0.0573      0.0000      0.0058      0.0309
         3         0.0000      0.0000      0.0144      0.0002      0.0007
 Ground to excited state transition magnetic dipole moments (Au):
       state          X           Y           Z
         1        -0.2564     -0.4990     -0.0000
         2         0.0000     -0.0000      0.6721
         3        -0.2879      0.2405      0.0000
 Ground to excited state transition velocity quadrupole moments (Au):
       state          XX          YY          ZZ          XY          XZ          YZ
         1         0.0000      0.0000      0.0000      0.0000     -0.1778      0.0202
         2         0.1308     -0.0986      0.0215     -0.1679     -0.0000      0.0000
         3         0.0000      0.0000      0.0000      0.0000      0.1357      0.0146
 <0|del|b> * <b|rxdel|0> + <0|del|b> * <b|delr+rdel|0>
 Rotatory Strengths (R) in cgs (10**-40 erg-esu-cm/Gauss)
       state          XX          YY          ZZ    R(velocity)    E-M Angle
         1         0.0011      0.0014     -0.0002      0.0008       90.00
         2         0.0007      0.0007      0.0010      0.0008       90.00
         3         0.0004     -0.0003      0.0000      0.0000       90.00
 1/2[<0|r|b>*<b|rxdel|0> + (<0|rxdel|b>*<b|r|0>)*]
 Rotatory Strengths (R) in cgs (10**-40 erg-esu-cm/Gauss)
       state          XX          YY          ZZ     R(length)
         1        -0.0001      0.0001     -0.0001     -0.0000
         2         0.0012      0.0005     -0.0010      0.0002
         3        -0.0005      0.0007     -0.0001      0.0000
  1/2[<0|del|b>*<b|r|0> + (<0|r|b>*<b|del|0>)*] (Au)
       state          X           Y           Z        Dip. S.   Osc.(frdel)
         1         0.0000      0.0000      0.0028     -0.0028     -0.0019
         2        -0.0334     -0.0082      0.0000      0.0417      0.0278
         3        -0.0000     -0.0000      0.0002     -0.0002     -0.0001

 Excitation energies and oscillator strengths:
 
 Excited State   1:      Singlet-A      2.7556 eV  449.93 nm  f=0.0001  <S**2>=0.000
      19 -> 25        -0.16073
      23 -> 25         0.66365
 This state for optimization and/or second-order correction.
 Total Energy, E(CIS/TDA) =  -738.218611593    
 Copying the excited state density for this state as the 1-particle RhoCI density.
 
 Excited State   2:      Singlet-A      3.4108 eV  363.50 nm  f=0.0385  <S**2>=0.000
      21 -> 25        -0.11699
      24 -> 25         0.65755
      24 -> 35         0.11603
 
 Excited State   3:      Singlet-A      5.6209 eV  220.58 nm  f=0.0000  <S**2>=0.000
      19 -> 25        -0.49670
      23 -> 28         0.14751
      23 -> 29        -0.16203
      23 -> 31        -0.21840
      23 -> 34         0.23339
      23 -> 35        -0.24771
 SavETr:  write IOETrn=   770 NScale= 10 NData=  16 NLR=1 NState=    3 LETran=      64.
          IDoAtm=11111
          Differentiating once with respect to electric field.
                with respect to dipole field.
          Differentiating once with respect to nuclear coordinates.
 Keep R1 ints in memory in canonical form, NReq=220788045.
          There are     1 degrees of freedom in the 1st order CPHF.  IDoFFX=0 NUNeed=     1.
 LinEq1:  Iter=  0 NonCon=     1 RMS=6.82D-03 Max=1.81D-01 NDo=     1
 AX will form     1 AO Fock derivatives at one time.
 LinEq1:  Iter=  1 NonCon=     1 RMS=3.05D-03 Max=6.21D-02 NDo=     1
 LinEq1:  Iter=  2 NonCon=     1 RMS=1.25D-03 Max=3.08D-02 NDo=     1
 LinEq1:  Iter=  3 NonCon=     1 RMS=6.08D-04 Max=2.22D-02 NDo=     1
 LinEq1:  Iter=  4 NonCon=     1 RMS=2.88D-04 Max=7.70D-03 NDo=     1
 LinEq1:  Iter=  5 NonCon=     1 RMS=1.10D-04 Max=2.02D-03 NDo=     1
 LinEq1:  Iter=  6 NonCon=     1 RMS=3.50D-05 Max=6.15D-04 NDo=     1
 LinEq1:  Iter=  7 NonCon=     1 RMS=1.17D-05 Max=2.95D-04 NDo=     1
 LinEq1:  Iter=  8 NonCon=     1 RMS=5.92D-06 Max=1.43D-04 NDo=     1
 LinEq1:  Iter=  9 NonCon=     1 RMS=3.11D-06 Max=6.22D-05 NDo=     1
 LinEq1:  Iter= 10 NonCon=     1 RMS=7.93D-07 Max=1.61D-05 NDo=     1
 LinEq1:  Iter= 11 NonCon=     1 RMS=1.88D-07 Max=3.83D-06 NDo=     1
 LinEq1:  Iter= 12 NonCon=     1 RMS=4.24D-08 Max=6.53D-07 NDo=     1
 LinEq1:  Iter= 13 NonCon=     1 RMS=1.14D-08 Max=1.54D-07 NDo=     1
 LinEq1:  Iter= 14 NonCon=     1 RMS=2.67D-09 Max=5.12D-08 NDo=     1
 LinEq1:  Iter= 15 NonCon=     1 RMS=7.13D-10 Max=1.46D-08 NDo=     1
 LinEq1:  Iter= 16 NonCon=     1 RMS=1.96D-10 Max=3.50D-09 NDo=     1
 LinEq1:  Iter= 17 NonCon=     0 RMS=4.08D-11 Max=8.57D-10 NDo=     1
 Linear equations converged to 1.000D-10 1.000D-09 after    17 iterations.
 End of Minotr F.D. properties file   721 does not exist.
 End of Minotr F.D. properties file   722 does not exist.
 End of Minotr F.D. properties file   788 does not exist.
 Calling FoFJK, ICntrl=  10005127 FMM=F ISym2X=0 I1Cent= 0 IOpClX= 0 NMat=1 NMatS=1 NMatT=0.
 ***** Axes restored to original set *****
 -------------------------------------------------------------------
 Center     Atomic                   Forces (Hartrees/Bohr)
 Number     Number              X              Y              Z
 -------------------------------------------------------------------
      1        7          -0.000296437    0.000042641    0.000000263
      2        8           0.000110261    0.000123075   -0.000000071
      3        8           0.000067414   -0.000068562   -0.000000098
      4        8           0.000667345   -0.000318313   -0.000000182
      5       17          -0.000548584    0.000221159    0.000000088
 -------------------------------------------------------------------
 Cartesian Forces:  Max     0.000667345 RMS     0.000261122

 GradGradGradGradGradGradGradGradGradGradGradGradGradGradGradGradGradGrad
 Berny optimization.
 FormGI is forming the generalized inverse of G from B-inverse, IUseBI=4.
 Internal  Forces:  Max     0.000586330 RMS     0.000205245
 Search for a saddle point.
 Step number   2 out of a maximum of   21
 All quantities printed in internal units (Hartrees-Bohrs-Radians)
 Swapping is turned off.
 Update second derivatives using D2CorX and points    1    2
 The second derivative matrix:
                          R1        R2        R3        R4        A1
           R1           0.91141
           R2           0.17630   0.91925
           R3           0.00998   0.00477  -0.04452
           R4           0.04755   0.04460   0.18073   0.05255
           A1           0.07712   0.07248  -0.01606  -0.03410   0.19511
           A2          -0.03486  -0.05354   0.00739   0.01628  -0.09240
           A3          -0.04226  -0.01894   0.00867   0.01782  -0.10271
           A4           0.01774   0.01999  -0.02713   0.02006  -0.01695
           D1          -0.00000   0.00000   0.00000   0.00000  -0.00000
           D2          -0.00000  -0.00000   0.00000  -0.00001   0.00000
           D3          -0.00000  -0.00000   0.00000  -0.00001   0.00000
                          A2        A3        A4        D1        D2
           A2           0.11554
           A3          -0.02314   0.12585
           A4           0.00135   0.01560   0.03364
           D1           0.00000  -0.00000  -0.00000   0.03081
           D2          -0.00000   0.00000   0.00000  -0.01219   0.00511
           D3          -0.00000   0.00000   0.00000   0.01171  -0.00434
                          D3
           D3           0.00474
 ITU=  0  0
     Eigenvalues ---   -0.18904   0.00058   0.03406   0.04008   0.14187
     Eigenvalues ---    0.16471   0.30116   0.73982   1.11624
 Eigenvectors required to have negative eigenvalues:
                          R3        R4        A4        R2        A1
   1                    0.78113  -0.60637   0.14529   0.01773  -0.01705
                          R1        A2        A3        D2        D3
   1                    0.01569   0.01288   0.00417  -0.00003  -0.00003
 RFO step:  Lambda0=1.103277132D-06 Lambda=-1.89055259D-06.
 Linear search not attempted -- option 19 set.
 Iteration  1 RMS(Cart)=  0.00254691 RMS(Int)=  0.00000543
 Iteration  2 RMS(Cart)=  0.00000582 RMS(Int)=  0.00000000
 Iteration  3 RMS(Cart)=  0.00000000 RMS(Int)=  0.00000000
 Variable       Old X    -DE/DX   Delta X   Delta X   Delta X     New X
                                 (Linear)    (Quad)   (Total)
    R1        2.17366   0.00014   0.00000   0.00025   0.00025   2.17390
    R2        2.17313   0.00009   0.00000   0.00024   0.00024   2.17337
    R3        3.24961  -0.00009   0.00000   0.00363   0.00363   3.25324
    R4        3.26644   0.00059   0.00000  -0.00041  -0.00041   3.26602
    A1        2.35650  -0.00007   0.00000  -0.00052  -0.00052   2.35598
    A2        1.99405   0.00011   0.00000   0.00062   0.00062   1.99467
    A3        1.93264  -0.00004   0.00000  -0.00010  -0.00010   1.93254
    A4        2.64181  -0.00025   0.00000  -0.00476  -0.00476   2.63705
    D1        3.14159   0.00000   0.00000   0.00000   0.00000   3.14159
    D2        0.00001  -0.00000   0.00000  -0.00008  -0.00008  -0.00007
    D3       -3.14159  -0.00000   0.00000  -0.00008  -0.00008   3.14152
         Item               Value     Threshold  Converged?
 Maximum Force            0.000586     0.000450     NO 
 RMS     Force            0.000205     0.000300     YES
 Maximum Displacement     0.005859     0.001800     NO 
 RMS     Displacement     0.002547     0.001200     NO 
 Predicted change in Energy=-3.936345D-07
 GradGradGradGradGradGradGradGradGradGradGradGradGradGradGradGradGradGrad

                          Input orientation:                          
 ---------------------------------------------------------------------
 Center     Atomic      Atomic             Coordinates (Angstroms)
 Number     Number       Type             X           Y           Z
 ---------------------------------------------------------------------
      1          7           0        1.324468    0.035162   -0.000007
      2          8           0        1.524984    1.167930   -0.000007
      3          8           0        1.983706   -0.907243    0.000002
      4          8           0       -0.344119   -0.388536   -0.000024
      5         17           0       -2.016155    0.048880    0.000018
 ---------------------------------------------------------------------
                    Distance matrix (angstroms):
                    1          2          3          4          5
     1  N    0.000000
     2  O    1.150379   0.000000
     3  O    1.150096   2.125269   0.000000
     4  O    1.721540   2.432310   2.384916   0.000000
     5  Cl   3.340651   3.713750   4.112549   1.728305   0.000000
 Stoichiometry    ClNO3
 Framework group  C1[X(ClNO3)]
 Deg. of freedom     9
 Full point group                 C1      NOp   1
 Largest Abelian subgroup         C1      NOp   1
 Largest concise Abelian subgroup C1      NOp   1
                         Standard orientation:                         
 ---------------------------------------------------------------------
 Center     Atomic      Atomic             Coordinates (Angstroms)
 Number     Number       Type             X           Y           Z
 ---------------------------------------------------------------------
      1          7           0       -1.317805    0.039006    0.000007
      2          8           0       -1.514043    1.172523    0.000007
      3          8           0       -1.980596   -0.900903   -0.000001
      4          8           0        0.349170   -0.390988    0.000024
      5         17           0        2.022846    0.040112   -0.000017
 ---------------------------------------------------------------------
 Rotational constants (GHZ):          13.4787242           1.8806415           1.6503708
 Standard basis: 6-311++G(3df,3pd) (5D, 7F)
 There are   233 symmetry adapted cartesian basis functions of A   symmetry.
 There are   203 symmetry adapted basis functions of A   symmetry.
   203 basis functions,   307 primitive gaussians,   233 cartesian basis functions
    24 alpha electrons       24 beta electrons
       nuclear repulsion energy       210.1699344150 Hartrees.
 NAtoms=    5 NActive=    5 NUniq=    5 SFac= 1.00D+00 NAtFMM=   60 NAOKFM=F Big=F
 Integral buffers will be    131072 words long.
 Raffenetti 1 integral format.
 Two-electron integral symmetry is turned on.
 One-electron integrals computed using PRISM.
 NBasis=   203 RedAO= T EigKep=  1.23D-04  NBF=   203
 NBsUse=   203 1.00D-06 EigRej= -1.00D+00 NBFU=   203
 Initial guess from the checkpoint file:  "/localscratch/alrebei.28376399.0/Gau-21471.chk"
 B after Tr=    -0.000000   -0.000000    0.000000
         Rot=    1.000000    0.000000   -0.000001    0.000181 Ang=   0.02 deg.
 Keep R1 ints in memory in canonical form, NReq=220787261.
 LinEq1:  Iter=  0 NonCon=     1 RMS=2.59D-05 Max=5.58D-04 NDo=     1
 AX will form     1 AO Fock derivatives at one time.
 LinEq1:  Iter=  1 NonCon=     1 RMS=5.92D-06 Max=1.65D-04 NDo=     1
 LinEq1:  Iter=  2 NonCon=     1 RMS=3.74D-06 Max=1.09D-04 NDo=     1
 LinEq1:  Iter=  3 NonCon=     1 RMS=1.23D-06 Max=2.16D-05 NDo=     1
 LinEq1:  Iter=  4 NonCon=     1 RMS=4.45D-07 Max=7.89D-06 NDo=     1
 LinEq1:  Iter=  5 NonCon=     1 RMS=1.74D-07 Max=4.03D-06 NDo=     1
 LinEq1:  Iter=  6 NonCon=     1 RMS=1.04D-07 Max=3.03D-06 NDo=     1
 LinEq1:  Iter=  7 NonCon=     1 RMS=2.70D-08 Max=5.79D-07 NDo=     1
 LinEq1:  Iter=  8 NonCon=     1 RMS=9.04D-09 Max=2.08D-07 NDo=     1
 LinEq1:  Iter=  9 NonCon=     0 RMS=4.90D-09 Max=7.38D-08 NDo=     1
 Linear equations converged to 9.269D-09 9.269D-08 after     9 iterations.
     Minimum is close to point  2 DX=  1.66D-04 DF= -2.27D-13 DXR=  1.66D-04 DFR=  2.02D-08 which will be used.
 LinEq1:  Iter=  0 NonCon=     1 RMS=2.74D-08 Max=7.89D-07 NDo=     1
 LinEq1:  Iter=  1 NonCon=     1 RMS=2.13D-08 Max=8.17D-07 NDo=     1
 LinEq1:  Iter=  2 NonCon=     1 RMS=6.44D-09 Max=1.21D-07 NDo=     1
 LinEq1:  Iter=  3 NonCon=     1 RMS=2.88D-09 Max=5.17D-08 NDo=     1
 LinEq1:  Iter=  4 NonCon=     1 RMS=1.34D-09 Max=2.84D-08 NDo=     1
 LinEq1:  Iter=  5 NonCon=     1 RMS=6.10D-10 Max=1.58D-08 NDo=     1
 LinEq1:  Iter=  6 NonCon=     1 RMS=2.34D-10 Max=3.17D-09 NDo=     1
 LinEq1:  Iter=  7 NonCon=     1 RMS=6.91D-11 Max=1.05D-09 NDo=     1
 LinEq1:  Iter=  8 NonCon=     1 RMS=3.19D-11 Max=8.75D-10 NDo=     1
 LinEq1:  Iter=  9 NonCon=     1 RMS=1.86D-11 Max=5.60D-10 NDo=     1
 LinEq1:  Iter= 10 NonCon=     0 RMS=7.36D-12 Max=2.19D-10 NDo=     1
 Linear equations converged to 4.116D-11 4.116D-10 after    10 iterations.
 SCF Done:  E(RHF) =  -738.320083793     a.u. after    3 cycles
            Convg  =    0.3705D-08                    23 Fock formations.
              S**2 =  0.0000                  -V/T =  2.0008
 ExpMin= 4.83D-02 ExpMax= 1.06D+05 ExpMxC= 3.62D+03 IAcc=3 IRadAn=         5 AccDes= 0.00D+00
 HarFok:  IExCor=  205 AccDes= 0.00D+00 IRadAn=         5 IDoV=-2 UseB2=F ITyADJ=14
 ICtDFT= 12500011 ScaDFX=  1.000000  1.000000  1.000000  1.000000
 Range of M.O.s used for correlation:    10   203
 NBasis=   203 NAE=    24 NBE=    24 NFC=     9 NFV=     0
 NROrb=    194 NOA=    15 NOB=    15 NVA=   179 NVB=   179

 **** Warning!!: The largest alpha MO coefficient is  0.32359003D+02

 Orbital symmetries:
       Occupied  (A) (A) (A) (A) (A) (A) (A) (A) (A) (A) (A) (A)
                 (A) (A) (A) (A) (A) (A) (A) (A) (A) (A) (A) (A)
       Virtual   (A) (A) (A) (A) (A) (A) (A) (A) (A) (A) (A) (A)
                 (A) (A) (A) (A) (A) (A) (A) (A) (A) (A) (A) (A)
                 (A) (A) (A) (A) (A) (A) (A) (A) (A) (A) (A) (A)
                 (A) (A) (A) (A) (A) (A) (A) (A) (A) (A) (A) (A)
                 (A) (A) (A) (A) (A) (A) (A) (A) (A) (A) (A) (A)
                 (A) (A) (A) (A) (A) (A) (A) (A) (A) (A) (A) (A)
                 (A) (A) (A) (A) (A) (A) (A) (A) (A) (A) (A) (A)
                 (A) (A) (A) (A) (A) (A) (A) (A) (A) (A) (A) (A)
                 (A) (A) (A) (A) (A) (A) (A) (A) (A) (A) (A) (A)
                 (A) (A) (A) (A) (A) (A) (A) (A) (A) (A) (A) (A)
                 (A) (A) (A) (A) (A) (A) (A) (A) (A) (A) (A) (A)
                 (A) (A) (A) (A) (A) (A) (A) (A) (A) (A) (A) (A)
                 (A) (A) (A) (A) (A) (A) (A) (A) (A) (A) (A) (A)
                 (A) (A) (A) (A) (A) (A) (A) (A) (A) (A) (A) (A)
                 (A) (A) (A) (A) (A) (A) (A) (A) (A) (A) (A)
 Generating guess from densities on rwf.
 Convergence on wavefunction:    0.000001000000000
 Iteration     1 Dimension     3 NMult     0 NNew      3
 CISAX will form     3 AO SS matrices at one time.
 Iteration     2 Dimension     6 NMult     3 NNew      3
 Iteration     3 Dimension     9 NMult     6 NNew      3
 Iteration     4 Dimension    12 NMult     9 NNew      3
 Iteration     5 Dimension    15 NMult    12 NNew      3
 Iteration     6 Dimension    18 NMult    15 NNew      3
 Iteration     7 Dimension    21 NMult    18 NNew      3
 Iteration     8 Dimension    24 NMult    21 NNew      3
 Iteration     9 Dimension    27 NMult    24 NNew      3
 Iteration    10 Dimension    29 NMult    27 NNew      2
 Iteration    11 Dimension    31 NMult    29 NNew      2
 Iteration    12 Dimension    32 NMult    31 NNew      1
 Iteration    13 Dimension    33 NMult    32 NNew      1
 Iteration    14 Dimension    35 NMult    33 NNew      2
 Iteration    15 Dimension    36 NMult    35 NNew      1
 Iteration    16 Dimension    37 NMult    36 NNew      1
 Iteration    17 Dimension    38 NMult    37 NNew      1
 Iteration    18 Dimension    39 NMult    38 NNew      1
 Iteration    19 Dimension    40 NMult    39 NNew      1
 Iteration    20 Dimension    41 NMult    40 NNew      1
 ***********************************************************************
 Excited states from <AA,BB:AA,BB> singles matrix:
 ***********************************************************************
 
 Ground to excited state transition densities written to RWF  633
 Ground to excited state transition electric dipole moments (Au):
       state          X           Y           Z        Dip. S.      Osc.
         1         0.0000     -0.0000     -0.0314      0.0010      0.0001
         2        -0.6713      0.1455      0.0000      0.4719      0.0396
         3        -0.0000      0.0000      0.0128      0.0002      0.0000
 Ground to excited state transition velocity dipole moments (Au):
       state          X           Y           Z        Dip. S.      Osc.
         1        -0.0000     -0.0000     -0.0881      0.0078      0.0510
         2         0.0513     -0.0571     -0.0000      0.0059      0.0312
         3         0.0000      0.0000      0.0148      0.0002      0.0007
 Ground to excited state transition magnetic dipole moments (Au):
       state          X           Y           Z
         1        -0.2571     -0.4987      0.0000
         2         0.0000      0.0001      0.6732
         3        -0.2892      0.2358      0.0000
 Ground to excited state transition velocity quadrupole moments (Au):
       state          XX          YY          ZZ          XY          XZ          YZ
         1        -0.0000      0.0000     -0.0000     -0.0000     -0.1775      0.0205
         2         0.1305     -0.0995      0.0217     -0.1673     -0.0000      0.0000
         3         0.0000      0.0000     -0.0000      0.0000      0.1368      0.0146
 <0|del|b> * <b|rxdel|0> + <0|del|b> * <b|delr+rdel|0>
 Rotatory Strengths (R) in cgs (10**-40 erg-esu-cm/Gauss)
       state          XX          YY          ZZ    R(velocity)    E-M Angle
         1        -0.0116     -0.0116      0.0052     -0.0060       90.00
         2        -0.0108     -0.0002     -0.0078     -0.0063       90.00
         3         0.0010     -0.0013      0.0005      0.0001       90.00
 1/2[<0|r|b>*<b|rxdel|0> + (<0|rxdel|b>*<b|r|0>)*]
 Rotatory Strengths (R) in cgs (10**-40 erg-esu-cm/Gauss)
       state          XX          YY          ZZ     R(length)
         1         0.0010     -0.0012      0.0010      0.0003
         2         0.0040     -0.0060     -0.0009     -0.0009
         3        -0.0005     -0.0019     -0.0000     -0.0008
  1/2[<0|del|b>*<b|r|0> + (<0|r|b>*<b|del|0>)*] (Au)
       state          X           Y           Z        Dip. S.   Osc.(frdel)
         1        -0.0000      0.0000      0.0028     -0.0028     -0.0018
         2        -0.0345     -0.0083     -0.0000      0.0428      0.0285
         3        -0.0000      0.0000      0.0002     -0.0002     -0.0001

 Excitation energies and oscillator strengths:
 
 Excited State   1:      Singlet-A      2.7612 eV  449.02 nm  f=0.0001  <S**2>=0.000
      19 -> 25        -0.16240
      23 -> 25         0.66319
 This state for optimization and/or second-order correction.
 Total Energy, E(CIS/TDA) =  -738.218611865    
 Copying the excited state density for this state as the 1-particle RhoCI density.
 
 Excited State   2:      Singlet-A      3.4269 eV  361.80 nm  f=0.0396  <S**2>=0.000
      21 -> 25        -0.11763
      24 -> 25         0.65704
      24 -> 35         0.11494
 
 Excited State   3:      Singlet-A      5.6147 eV  220.82 nm  f=0.0000  <S**2>=0.000
      19 -> 25        -0.49303
      23 -> 28         0.15124
      23 -> 29        -0.16555
      23 -> 31        -0.21804
      23 -> 34         0.23867
      23 -> 35        -0.24434
 SavETr:  write IOETrn=   770 NScale= 10 NData=  16 NLR=1 NState=    3 LETran=      64.
          IDoAtm=11111
          Differentiating once with respect to electric field.
                with respect to dipole field.
          Differentiating once with respect to nuclear coordinates.
 Keep R1 ints in memory in canonical form, NReq=220788045.
          There are     1 degrees of freedom in the 1st order CPHF.  IDoFFX=0 NUNeed=     1.
 LinEq1:  Iter=  0 NonCon=     1 RMS=6.85D-03 Max=1.83D-01 NDo=     1
 AX will form     1 AO Fock derivatives at one time.
 LinEq1:  Iter=  1 NonCon=     1 RMS=3.06D-03 Max=6.23D-02 NDo=     1
 LinEq1:  Iter=  2 NonCon=     1 RMS=1.25D-03 Max=3.10D-02 NDo=     1
 LinEq1:  Iter=  3 NonCon=     1 RMS=6.10D-04 Max=2.23D-02 NDo=     1
 LinEq1:  Iter=  4 NonCon=     1 RMS=2.90D-04 Max=7.75D-03 NDo=     1
 LinEq1:  Iter=  5 NonCon=     1 RMS=1.11D-04 Max=2.03D-03 NDo=     1
 LinEq1:  Iter=  6 NonCon=     1 RMS=3.50D-05 Max=6.15D-04 NDo=     1
 LinEq1:  Iter=  7 NonCon=     1 RMS=1.18D-05 Max=3.04D-04 NDo=     1
 LinEq1:  Iter=  8 NonCon=     1 RMS=6.01D-06 Max=1.46D-04 NDo=     1
 LinEq1:  Iter=  9 NonCon=     1 RMS=3.12D-06 Max=6.31D-05 NDo=     1
 LinEq1:  Iter= 10 NonCon=     1 RMS=7.92D-07 Max=1.57D-05 NDo=     1
 LinEq1:  Iter= 11 NonCon=     1 RMS=1.87D-07 Max=3.76D-06 NDo=     1
 LinEq1:  Iter= 12 NonCon=     1 RMS=4.18D-08 Max=6.39D-07 NDo=     1
 LinEq1:  Iter= 13 NonCon=     1 RMS=1.12D-08 Max=1.63D-07 NDo=     1
 LinEq1:  Iter= 14 NonCon=     1 RMS=2.52D-09 Max=4.12D-08 NDo=     1
 LinEq1:  Iter= 15 NonCon=     1 RMS=6.51D-10 Max=1.29D-08 NDo=     1
 LinEq1:  Iter= 16 NonCon=     1 RMS=1.82D-10 Max=3.25D-09 NDo=     1
 LinEq1:  Iter= 17 NonCon=     0 RMS=3.88D-11 Max=7.80D-10 NDo=     1
 Linear equations converged to 1.000D-10 1.000D-09 after    17 iterations.
 End of Minotr F.D. properties file   721 does not exist.
 End of Minotr F.D. properties file   722 does not exist.
 End of Minotr F.D. properties file   788 does not exist.
 Calling FoFJK, ICntrl=  10005127 FMM=F ISym2X=0 I1Cent= 0 IOpClX= 0 NMat=1 NMatS=1 NMatT=0.
 ***** Axes restored to original set *****
 -------------------------------------------------------------------
 Center     Atomic                   Forces (Hartrees/Bohr)
 Number     Number              X              Y              Z
 -------------------------------------------------------------------
      1        7           0.000034801   -0.000014181   -0.000000062
      2        8          -0.000025681   -0.000020120   -0.000000209
      3        8          -0.000016822    0.000009426    0.000000101
      4        8           0.000028817    0.000031172    0.000000327
      5       17          -0.000021115   -0.000006297   -0.000000156
 -------------------------------------------------------------------
 Cartesian Forces:  Max     0.000034801 RMS     0.000018504

 GradGradGradGradGradGradGradGradGradGradGradGradGradGradGradGradGradGrad
 Berny optimization.
 FormGI is forming the generalized inverse of G from B-inverse, IUseBI=4.
 Internal  Forces:  Max     0.000039184 RMS     0.000019392
 Search for a saddle point.
 Step number   3 out of a maximum of   21
 All quantities printed in internal units (Hartrees-Bohrs-Radians)
 Swapping is turned off.
 Update second derivatives using D2CorX and points    1    2    3
 The second derivative matrix:
                          R1        R2        R3        R4        A1
           R1           0.91169
           R2           0.17653   0.91943
           R3           0.01209   0.00629  -0.04432
           R4           0.04709   0.04425   0.17926   0.05308
           A1           0.07666   0.07212  -0.01784  -0.03355   0.19569
           A2          -0.03433  -0.05313   0.00955   0.01563  -0.09308
           A3          -0.04234  -0.01899   0.00829   0.01792  -0.10261
           A4           0.01447   0.01762  -0.02901   0.02263  -0.01398
           D1          -0.00000   0.00000  -0.00000   0.00000  -0.00000
           D2          -0.00005  -0.00004   0.00002   0.00003   0.00004
           D3          -0.00005  -0.00004   0.00002   0.00003   0.00004
                          A2        A3        A4        D1        D2
           A2           0.11634
           A3          -0.02326   0.12587
           A4          -0.00222   0.01619   0.03913
           D1           0.00000  -0.00000   0.00000   0.03081
           D2          -0.00005   0.00001   0.00002  -0.01219   0.00511
           D3          -0.00005   0.00001   0.00002   0.01171  -0.00434
                          D3
           D3           0.00474
 ITU=  0  0  0
     Eigenvalues ---   -0.18797   0.00058   0.04008   0.04087   0.14282
     Eigenvalues ---    0.16314   0.30184   0.73984   1.11637
 Eigenvectors required to have negative eigenvalues:
                          R3        R4        A4        R2        R1
   1                    0.78097  -0.60398   0.15672   0.01634   0.01397
                          A1        A2        A3        D1        D3
   1                   -0.01330   0.00839   0.00491   0.00001   0.00001
 RFO step:  Lambda0=1.498796878D-09 Lambda=-5.44900006D-08.
 Linear search not attempted -- option 19 set.
 Iteration  1 RMS(Cart)=  0.00058900 RMS(Int)=  0.00000027
 Iteration  2 RMS(Cart)=  0.00000026 RMS(Int)=  0.00000000
 Variable       Old X    -DE/DX   Delta X   Delta X   Delta X     New X
                                 (Linear)    (Quad)   (Total)
    R1        2.17390  -0.00002   0.00000  -0.00006  -0.00006   2.17384
    R2        2.17337  -0.00002   0.00000  -0.00006  -0.00006   2.17331
    R3        3.25324  -0.00001   0.00000   0.00001   0.00001   3.25325
    R4        3.26602   0.00002   0.00000   0.00013   0.00013   3.26615
    A1        2.35598   0.00002   0.00000   0.00017   0.00017   2.35616
    A2        1.99467  -0.00003   0.00000  -0.00014  -0.00014   1.99453
    A3        1.93254   0.00000   0.00000  -0.00003  -0.00003   1.93250
    A4        2.63705   0.00004   0.00000   0.00105   0.00105   2.63810
    D1        3.14159   0.00000   0.00000   0.00000   0.00000  -3.14159
    D2       -0.00007   0.00000   0.00000   0.00011   0.00011   0.00004
    D3        3.14152   0.00000   0.00000   0.00011   0.00011  -3.14155
         Item               Value     Threshold  Converged?
 Maximum Force            0.000039     0.000450     YES
 RMS     Force            0.000019     0.000300     YES
 Maximum Displacement     0.001196     0.001800     YES
 RMS     Displacement     0.000589     0.001200     YES
 Predicted change in Energy=-2.649560D-08
 Optimization completed.
    -- Stationary point found.
                           ----------------------------
                           !   Optimized Parameters   !
                           ! (Angstroms and Degrees)  !
 --------------------------                            --------------------------
 ! Name  Definition              Value          Derivative Info.                !
 --------------------------------------------------------------------------------
 ! R1    R(1,2)                  1.1504         -DE/DX =    0.0                 !
 ! R2    R(1,3)                  1.1501         -DE/DX =    0.0                 !
 ! R3    R(1,4)                  1.7215         -DE/DX =    0.0                 !
 ! R4    R(4,5)                  1.7283         -DE/DX =    0.0                 !
 ! A1    A(2,1,3)              134.988          -DE/DX =    0.0                 !
 ! A2    A(2,1,4)              114.2859         -DE/DX =    0.0                 !
 ! A3    A(3,1,4)              110.7261         -DE/DX =    0.0                 !
 ! A4    A(1,4,5)              151.0919         -DE/DX =    0.0                 !
 ! D1    D(2,1,3,4)           -180.0            -DE/DX =    0.0                 !
 ! D2    D(2,1,4,5)             -0.0041         -DE/DX =    0.0                 !
[...]
                      A                      A                      A
 Frequencies --   -850.1300                44.6186               114.1041
 Red. masses --     16.2288                17.0671                18.4155
 Frc consts  --      6.9105                 0.0200                 0.1413
 IR Inten    --     95.4995                 0.4651                 5.9834
  Atom  AN      X      Y      Z        X      Y      Z        X      Y      Z
     1   7    -0.34   0.07  -0.00     0.00  -0.00   0.04    -0.14   0.13   0.00
     2   8    -0.13   0.08  -0.00     0.00  -0.00   0.00    -0.59   0.04   0.00
     3   8    -0.14  -0.03  -0.00    -0.00   0.00  -0.40     0.28  -0.16  -0.00
     4   8     0.90   0.02  -0.00     0.00  -0.00   0.88    -0.08   0.62   0.00
     5  17    -0.15  -0.06   0.00    -0.00   0.00  -0.24     0.24  -0.28  -0.00
                      4                      5                      6
                      A                      A                      A
 Frequencies --    356.2869               468.2213               606.7303
 Red. masses --     19.4805                17.2211                14.4336
 Frc consts  --      1.4570                 2.2244                 3.1305
 IR Inten    --     26.1693                 0.2713                20.6978
  Atom  AN      X      Y      Z        X      Y      Z        X      Y      Z
     1   7     0.35   0.22   0.00     0.07  -0.23  -0.00    -0.00  -0.00   0.89
     2   8    -0.11   0.18  -0.00     0.55  -0.18   0.00     0.00  -0.00  -0.31
     3   8     0.75  -0.06  -0.00    -0.07  -0.14   0.00    -0.00   0.00  -0.30
     4   8     0.02  -0.14  -0.00     0.00   0.71  -0.00    -0.00   0.00  -0.17
     5  17    -0.44  -0.08   0.00    -0.25  -0.09   0.00    -0.00  -0.00   0.00
                      7                      8                      9
                      A                      A                      A
 Frequencies --    853.7696              1508.4569              1933.8458
 Red. masses --     15.1672                15.4944                14.5990
 Frc consts  --      6.5138                20.7726                32.1674
 IR Inten    --    510.2175               840.3021               843.6801
  Atom  AN      X      Y      Z        X      Y      Z        X      Y      Z
     1   7     0.66  -0.17  -0.00     0.49  -0.11   0.00     0.18   0.82  -0.00
     2   8    -0.36  -0.34  -0.00    -0.10   0.59  -0.00     0.06  -0.38   0.00
     3   8    -0.23   0.44   0.00    -0.36  -0.50  -0.00    -0.21  -0.32  -0.00
     4   8     0.16   0.10  -0.00     0.03   0.02  -0.00    -0.00  -0.01  -0.00
     5  17    -0.06  -0.03   0.00     0.00  -0.00   0.00    -0.00   0.00   0.00

 -------------------
 - Thermochemistry -
 -------------------
 Temperature   298.150 Kelvin.  Pressure   1.00000 Atm.
 Atom     1 has atomic number  7 and mass  14.00307
 Atom     2 has atomic number  8 and mass  15.99491
 Atom     3 has atomic number  8 and mass  15.99491
 Atom     4 has atomic number  8 and mass  15.99491
 Atom     5 has atomic number 17 and mass  34.96885
 Molecular mass:    96.95667 amu.
 Principal axes and moments of inertia in atomic units:
                           1         2         3
     Eigenvalues --   133.89555 959.641271093.53682
           X            1.00000  -0.00034   0.00001
           Y            0.00034   1.00000   0.00000
           Z           -0.00001  -0.00000   1.00000
 This molecule is an asymmetric top.
 Rotational symmetry number  1.
 Rotational temperatures (Kelvin)      0.64688     0.09026     0.07921
 Rotational constants (GHZ):          13.47872     1.88064     1.65037
    1 imaginary frequencies ignored.
 Zero-point vibrational energy      35206.3 (Joules/Mol)
                                    8.41451 (Kcal/Mol)
 Warning -- explicit consideration of   5 degrees of freedom as
           vibrations may cause significant error
 Vibrational temperatures:     64.20   164.17   512.62   673.67   872.95
          (Kelvin)           1228.38  2170.33  2782.37
 
 Zero-point correction=                           0.013409 (Hartree/Particle)
 Thermal correction to Energy=                    0.018625
 Thermal correction to Enthalpy=                  0.019569
 Thermal correction to Gibbs Free Energy=        -0.016926
 Sum of electronic and zero-point Energies=           -738.205202
 Sum of electronic and thermal Energies=              -738.199987
 Sum of electronic and thermal Enthalpies=            -738.199042
 Sum of electronic and thermal Free Energies=         -738.235537
 
                     E (Thermal)             CV                S
                      KCal/Mol        Cal/Mol-Kelvin    Cal/Mol-Kelvin
 Total                   11.687             14.434             76.810
 Electronic               0.000              0.000              0.000
 Translational            0.889              2.981             39.626
 Rotational               0.889              2.981             26.444
 Vibrational              9.910              8.472             10.741
 Vibration     1          0.595              1.980              5.043
 Vibration     2          0.607              1.938              3.198
 Vibration     3          0.732              1.562              1.138
 Vibration     4          0.825              1.321              0.743
 Vibration     5          0.965              1.018              0.438
                       Q            Log10(Q)             Ln(Q)
 Total Bot       0.609816D+08          7.785198         17.926082
 Total V=0       0.897585D+14         13.953075         32.128144
 Vib (Bot)       0.121110D-04         -4.916822        -11.321401
 Vib (Bot)    1  0.463540D+01          0.666087          1.533721
 Vib (Bot)    2  0.179336D+01          0.253667          0.584091
 Vib (Bot)    3  0.515713D+00         -0.287592         -0.662204
 Vib (Bot)    4  0.360783D+00         -0.442753         -1.019478
 Vib (Bot)    5  0.244400D+00         -0.611899         -1.408949
 Vib (V=0)       0.178261D+02          1.251055          2.880661
 Vib (V=0)    1  0.516228D+01          0.712842          1.641379
 Vib (V=0)    2  0.236176D+01          0.373235          0.859406
 Vib (V=0)    3  0.121830D+01          0.085756          0.197460
 Vib (V=0)    4  0.111657D+01          0.047888          0.110266
 Vib (V=0)    5  0.105654D+01          0.023884          0.054995
 Electronic      0.100000D+01          0.000000          0.000000
 Translational   0.375250D+08          7.574320         17.440517
 Rotational      0.134184D+06          5.127700         11.806965
 ***** Axes restored to original set *****
 -------------------------------------------------------------------
 Center     Atomic                   Forces (Hartrees/Bohr)
 Number     Number              X              Y              Z
 -------------------------------------------------------------------
      1        7           0.000034820   -0.000014152   -0.000000165
      2        8          -0.000025684   -0.000020154   -0.000000131
      3        8          -0.000016807    0.000009423    0.000000109
      4        8           0.000028791    0.000031177    0.000000324
      5       17          -0.000021121   -0.000006294   -0.000000137
 -------------------------------------------------------------------
 Cartesian Forces:  Max     0.000034820 RMS     0.000018505
 -------------------------------------------------------------------
 Center     Atomic                Nonadiabatic Coup. (Bohr^-1)
 Number     Number              X              Y              Z
 -------------------------------------------------------------------
      1        7           0.000000440    0.000026443   -0.489161218
      2        8           0.000007365    0.000003072    0.081034663
      3        8          -0.000014546    0.000001397    0.093110123
      4        8           0.000006599   -0.000036380    0.318275888
      5       17          -0.000004056    0.000006336   -0.091323734
 -------------------------------------------------------------------
 Cartesian Nonad. Coup.:  Max     0.489161218 RMS     0.155810649
 FormGI is forming the generalized inverse of G from B-inverse, IUseBI=4.

 GradGradGradGradGradGradGradGradGradGradGradGradGradGradGradGradGradGrad
 Berny optimization.
 Internal  Forces:  Max     0.000039193 RMS     0.000019395
 Search for a saddle point.
 Step number   1 out of a maximum of    2
 All quantities printed in internal units (Hartrees-Bohrs-Radians)
 Swapping is turned off.
 Second derivative matrix not updated -- analytic derivatives used.
 The second derivative matrix:
                          R1        R2        R3        R4        A1
           R1           0.93281
           R2           0.17460   0.94400
           R3           0.01087   0.00470  -0.04735
           R4           0.04547   0.04356   0.18639   0.06239
           A1           0.07569   0.07200  -0.01697  -0.03329   0.20041
           A2          -0.03073  -0.05438   0.00843   0.01330  -0.09626
           A3          -0.04496  -0.01762   0.00855   0.01999  -0.10415
           A4           0.01541   0.01787  -0.03173   0.02635  -0.01452
           D1          -0.00000  -0.00000   0.00000  -0.00000  -0.00000
           D2           0.00000   0.00000   0.00000   0.00000   0.00000
           D3          -0.00000   0.00000   0.00000   0.00000  -0.00000
                          A2        A3        A4        D1        D2
           A2           0.12674
           A3          -0.03048   0.13463
           A4          -0.00084   0.01537   0.03712
           D1           0.00000   0.00000  -0.00000   0.03335
           D2          -0.00000   0.00000  -0.00000  -0.01318   0.00540
           D3          -0.00000   0.00000  -0.00000   0.01269  -0.00483
                          D3
           D3           0.00502
 ITU=  0
     Eigenvalues ---   -0.19469   0.00038   0.04062   0.04339   0.16017
     Eigenvalues ---    0.17381   0.30949   0.76488   1.13648
 Eigenvectors required to have negative eigenvalues:
                          R3        R4        A4        R2        R1
   1                    0.78527  -0.59431   0.17175   0.01597   0.01282
                          A1        A3        A2        D1        D3
   1                   -0.01227   0.00691   0.00536  -0.00000  -0.00000
 Angle between quadratic step and forces=  44.06 degrees.
 Linear search not attempted -- option 19 set.
 Iteration  1 RMS(Cart)=  0.00060173 RMS(Int)=  0.00000035
 Iteration  2 RMS(Cart)=  0.00000031 RMS(Int)=  0.00000000
 Variable       Old X    -DE/DX   Delta X   Delta X   Delta X     New X
                                 (Linear)    (Quad)   (Total)
    R1        2.17390  -0.00002   0.00000  -0.00006  -0.00006   2.17384
    R2        2.17337  -0.00002   0.00000  -0.00005  -0.00005   2.17331
    R3        3.25324  -0.00001   0.00000  -0.00002  -0.00002   3.25321
    R4        3.26602   0.00002   0.00000   0.00013   0.00013   3.26615
    A1        2.35598   0.00002   0.00000   0.00017   0.00017   2.35615
    A2        1.99467  -0.00003   0.00000  -0.00013  -0.00013   1.99453
    A3        1.93254   0.00000   0.00000  -0.00003  -0.00003   1.93250
    A4        2.63705   0.00004   0.00000   0.00107   0.00107   2.63812
    D1        3.14159  -0.00000   0.00000   0.00000   0.00000  -3.14159
    D2       -0.00007   0.00000   0.00000   0.00028   0.00028   0.00020
    D3        3.14152   0.00000   0.00000   0.00028   0.00028  -3.14139
         Item               Value     Threshold  Converged?
 Maximum Force            0.000039     0.000450     YES
 RMS     Force            0.000019     0.000300     YES
 Maximum Displacement     0.001222     0.001800     YES
 RMS     Displacement     0.000602     0.001200     YES
 Predicted change in Energy=-2.702393D-08
 Optimization completed.
    -- Stationary point found.
                           ----------------------------
                           !   Optimized Parameters   !
                           ! (Angstroms and Degrees)  !
 --------------------------                            --------------------------
 ! Name  Definition              Value          Derivative Info.                !
 --------------------------------------------------------------------------------
 ! R1    R(1,2)                  1.1504         -DE/DX =    0.0                 !
 ! R2    R(1,3)                  1.1501         -DE/DX =    0.0                 !
 ! R3    R(1,4)                  1.7215         -DE/DX =    0.0                 !
 ! R4    R(4,5)                  1.7283         -DE/DX =    0.0                 !
 ! A1    A(2,1,3)              134.988          -DE/DX =    0.0                 !
 ! A2    A(2,1,4)              114.2859         -DE/DX =    0.0                 !
 ! A3    A(3,1,4)              110.7261         -DE/DX =    0.0                 !
 ! A4    A(1,4,5)              151.0919         -DE/DX =    0.0                 !
 ! D1    D(2,1,3,4)           -180.0            -DE/DX =    0.0                 !
 ! D2    D(2,1,4,5)             -0.0041         -DE/DX =    0.0                 !
 ! D3    D(3,1,4,5)           -180.0041         -DE/DX =    0.0                 !
 --------------------------------------------------------------------------------
 GradGradGradGradGradGradGradGradGradGradGradGradGradGradGradGradGradGrad

 -------------------------------------------------------------------
 Center     Atomic                Nonadiabatic Coup. (Bohr^-1)
 Number     Number              X              Y              Z
 -------------------------------------------------------------------
      1        7           0.000000440    0.000026443   -0.489161218
      2        8           0.000007365    0.000003072    0.081034663
      3        8          -0.000014546    0.000001397    0.093110123
      4        8           0.000006599   -0.000036380    0.318275888
      5       17          -0.000004056    0.000006336   -0.091323734
 -------------------------------------------------------------------
 Cartesian Nonad. Coup.:  Max     0.489161218 RMS     0.155810649

 ----------------------------------------------------------------------

 Electric dipole moment (input orientation):
 (Debye = 10**-18 statcoulomb cm , SI units = C m)
                  (au)            (Debye)         (10**-30 SI)
   Tot        0.709167D+00      0.180252D+01      0.601257D+01
   x         -0.706184D+00     -0.179494D+01     -0.598728D+01
   y          0.649747D-01      0.165149D+00      0.550878D+00
   z          0.106106D-04      0.269695D-04      0.899606D-04

 Dipole polarizability, Alpha (input orientation).
 (esu units = cm**3 , SI units = C**2 m**2 J**-1)
 Alpha(0;0):
               (au)            (10**-24 esu)      (10**-40 SI)
   iso        0.562539D+02      0.833596D+01      0.927501D+01
   aniso      0.749384D+02      0.111047D+02      0.123557D+02
   xx         0.105470D+03      0.156290D+02      0.173896D+02
   yx        -0.272919D+01     -0.404425D+00     -0.449983D+00
   yy         0.385626D+02      0.571439D+01      0.635812D+01
   zx        -0.561556D-03     -0.832140D-04     -0.925881D-04
   zy         0.467729D-04      0.693103D-05      0.771181D-05
   zz         0.247294D+02      0.366452D+01      0.407733D+01

 ----------------------------------------------------------------------

 Dipole orientation:
     7          0.02709646          0.29423805         -2.48626586
     8          0.22558188          2.45146232         -2.66746658
     8         -0.12488907         -1.35804223         -3.88997207
     8         -0.07250000         -0.78738708          0.58028438
    17         -0.02357858         -0.25600979          3.80241920

 Electric dipole moment (dipole orientation):
 (Debye = 10**-18 statcoulomb cm , SI units = C m)
                  (au)            (Debye)         (10**-30 SI)
   Tot        0.709167D+00      0.180252D+01      0.601257D+01
   x          0.000000D+00      0.000000D+00      0.000000D+00
   y          0.000000D+00      0.000000D+00      0.000000D+00
   z          0.709167D+00      0.180252D+01      0.601257D+01

 Dipole polarizability, Alpha (dipole orientation).
 (esu units = cm**3 , SI units = C**2 m**2 J**-1)
 Alpha(0;0):
               (au)            (10**-24 esu)      (10**-40 SI)
   iso        0.562539D+02      0.833596D+01      0.927501D+01
   aniso      0.749384D+02      0.111047D+02      0.123557D+02
   xx         0.248461D+02      0.368181D+01      0.409657D+01
   yx         0.126794D+01      0.187889D+00      0.209054D+00
   yy         0.385096D+02      0.570654D+01      0.634938D+01
   zx        -0.314069D+00     -0.465403D-01     -0.517830D-01
   zy        -0.340647D+01     -0.504787D+00     -0.561651D+00
   zz         0.105406D+03      0.156195D+02      0.173791D+02

 ----------------------------------------------------------------------
 1\1\GINC-GRA599\Freq\RCIS-FC\6-311++G(3df,3pd)\Cl1N1O3\ALREBEI\24-Feb-
 2020\0\\#N Geom=AllCheck Guess=TCheck SCRF=Check GenChk RCIS(FC,Read)/
 6-311++G(3df,3pd) Freq\\Title Card Required\\0,1\N,1.3244675663,0.0351
 616654,-0.0000069415\O,1.5249837264,1.1679304579,-0.0000065807\O,1.983
 7056106,-0.9072425731,0.000001745\O,-0.3441186906,-0.3885355272,-0.000
 0238816\Cl,-2.0161552127,0.048879977,0.0000176588\\Version=ES64L-G16Re
 vA.03\State=1-A\HF=-738.3200838\RMSD=3.997e-11\RMSF=1.851e-05\ZeroPoin
 t=0.0134094\Thermal=0.0186252\Dipole=-0.7061845,0.0649747,0.0000106\Di
 poleDeriv=3.2811109,-0.3357049,-0.0000045,0.0720011,2.7747286,-0.00001
 61,0.0000312,-0.0000088,0.4471519,-1.4735857,-0.3211285,0.0000025,-1.1
 341038,-1.587203,0.0000086,-0.0000111,-0.0000011,-0.2098617,-2.0207443
 ,0.6386285,0.0000031,0.8564714,-1.2137676,0.0000034,-0.0000188,0.00000
 81,-0.2079197,1.7186224,0.1421188,-0.0000049,-0.1186258,-0.1167016,0.0
 000073,-0.0000433,0.,-0.1750287,-1.5054033,-0.1239139,0.0000039,0.3242
 57,0.1429436,-0.0000032,0.0000421,0.0000019,0.1456582\Polar=105.469505
 8,-2.7291942,38.5626484,-0.0005616,0.0000468,24.7294364\PG=C01 [X(Cl1N
 1O3)]\NImag=1\\0.44296520,-0.18775298,1.30155776,0.00000500,0.00000168
 ,0.14836471,-0.14976523,-0.13436291,0.00000013,0.11816940,-0.13430510,
 -0.73772648,-0.00000808,0.09524162,0.92462000,-0.00000248,-0.00000286,
 -0.05984847,0.00000007,0.00000481,0.02415010,-0.36852217,0.29775585,-0
 .00000623,0.03995132,0.04837424,0.00000156,0.34866086,0.31800624,-0.52
 392710,0.00000742,0.06066524,-0.18834797,-0.00000144,-0.37521608,0.710
 37785,-0.00000345,0.00000175,-0.05762762,0.00000006,0.00000221,0.02323
 770,0.00000279,-0.00000451,0.02255389,0.17641341,0.03804610,0.00000077
 ,0.02041997,0.03148061,0.00000126,0.02516724,-0.02491258,0.00000169,-0
 .33455230,-0.04047025,-0.05329967,-0.00000145,-0.02626010,-0.00476360,
 -0.00000047,0.02405412,0.00537239,0.00000051,0.00226633,0.07212529,-0.
 00000433,-0.00000120,-0.03182512,-0.00000130,0.00000163,0.01284574,0.0
 0000228,-0.00000240,0.01197295,0.00000208,0.00000249,0.00772756,-0.101
 09121,-0.01368605,0.00000033,-0.02877545,-0.04079136,-0.00000042,-0.04
 525726,0.02145719,-0.00000110,0.11255168,0.04040990,0.00000127,0.06257
 224,0.04452209,0.01339549,0.00000043,0.00471616,0.00621805,-0.00000004
 ,0.00503187,-0.00347518,0.00000004,-0.04688045,-0.01943442,-0.00000053
 ,-0.00738967,0.00329606,0.00000526,0.00000063,0.00093650,0.00000103,-0
 .00000058,-0.00038506,-0.00000041,0.00000093,-0.00013692,-0.00000580,-
 0.00000108,-0.00072114,-0.00000009,0.00000010,0.00030662\\-0.00003482,
 0.00001415,0.00000017,0.00002568,0.00002015,0.00000013,0.00001681,-0.0
 0000942,-0.00000011,-0.00002879,-0.00003118,-0.00000032,0.00002112,0.0
 0000629,0.00000014\\\@


 AND ALL THIS SCIENCE I DON'T UNDERSTAND
 IT'S JUST MY JOB FIVE DAYS A WEEK

                           -- ELTON JOHN, "ROCKET MAN"
 Job cpu time:       0 days  0 hours 12 minutes  4.3 seconds.
 Elapsed time:       0 days  0 hours  6 minutes  8.2 seconds.
 File lengths (MBytes):  RWF=    162 Int=      0 D2E=      0 Chk=      8 Scr=      1
 Normal termination of Gaussian 16 at Mon Feb 24 02:27:56 2020.
