 Entering Gaussian System, Link 0=g16
 Initial command:
 /opt/software/gaussian/g16.a03/l1.exe "/localscratch/alrebei.28376396.0/Gau-28052.inp" -scrdir="/localscratch/alrebei.28376396.0/"
 Entering Link 1 = /opt/software/gaussian/g16.a03/l1.exe PID=     28058.
  
 Copyright (c) 1988,1990,1992,1993,1995,1998,2003,2009,2016,
            Gaussian, Inc.  All Rights Reserved.
  
 This is part of the Gaussian(R) 16 program.  It is based on
 the Gaussian(R) 09 system (copyright 2009, Gaussian, Inc.),
 the Gaussian(R) 03 system (copyright 2003, Gaussian, Inc.),
 the Gaussian(R) 98 system (copyright 1998, Gaussian, Inc.),
 the Gaussian(R) 94 system (copyright 1995, Gaussian, Inc.),
 the Gaussian 92(TM) system (copyright 1992, Gaussian, Inc.),
 the Gaussian 90(TM) system (copyright 1990, Gaussian, Inc.),
 the Gaussian 88(TM) system (copyright 1988, Gaussian, Inc.),
 the Gaussian 86(TM) system (copyright 1986, Carnegie Mellon
 University), and the Gaussian 82(TM) system (copyright 1983,
 Carnegie Mellon University). Gaussian is a federally registered
 trademark of Gaussian, Inc.
  
 This software contains proprietary and confidential information,
 including trade secrets, belonging to Gaussian, Inc.
  
 This software is provided under written license and may be
 used, copied, transmitted, or stored only in accord with that
 written license.
  
 The following legend is applicable only to US Government
 contracts under FAR:
  
                    RESTRICTED RIGHTS LEGEND
  
 Use, reproduction and disclosure by the US Government is
 subject to restrictions as set forth in subparagraphs (a)
 and (c) of the Commercial Computer Software - Restricted
 Rights clause in FAR 52.227-19.
  
 Gaussian, Inc.
 340 Quinnipiac St., Bldg. 40, Wallingford CT 06492
  
  
 ---------------------------------------------------------------
 Warning -- This program may not be used in any manner that
 competes with the business of Gaussian, Inc. or will provide
 assistance to any competitor of Gaussian, Inc.  The licensee
 of this program is prohibited from giving any competitor of
 Gaussian, Inc. access to this program.  By using this program,
 the user acknowledges that Gaussian, Inc. is engaged in the
 business of creating and licensing software in the field of
 computational chemistry and represents and warrants to the
 licensee that it is not a competitor of Gaussian, Inc. and that
 it will not use this program in any manner prohibited above.
 ---------------------------------------------------------------
  

 Cite this work as:
 Gaussian 16, Revision A.03,
 M. J. Frisch, G. W. Trucks, H. B. Schlegel, G. E. Scuseria, 
 M. A. Robb, J. R. Cheeseman, G. Scalmani, V. Barone, 
 G. A. Petersson, H. Nakatsuji, X. Li, M. Caricato, A. V. Marenich, 
 J. Bloino, B. G. Janesko, R. Gomperts, B. Mennucci, H. P. Hratchian, 
 J. V. Ortiz, A. F. Izmaylov, J. L. Sonnenberg, D. Williams-Young, 
 F. Ding, F. Lipparini, F. Egidi, J. Goings, B. Peng, A. Petrone, 
 T. Henderson, D. Ranasinghe, V. G. Zakrzewski, J. Gao, N. Rega, 
 G. Zheng, W. Liang, M. Hada, M. Ehara, K. Toyota, R. Fukuda, 
 J. Hasegawa, M. Ishida, T. Nakajima, Y. Honda, O. Kitao, H. Nakai, 
 T. Vreven, K. Throssell, J. A. Montgomery, Jr., J. E. Peralta, 
 F. Ogliaro, M. J. Bearpark, J. J. Heyd, E. N. Brothers, K. N. Kudin, 
 V. N. Staroverov, T. A. Keith, R. Kobayashi, J. Normand, 
 K. Raghavachari, A. P. Rendell, J. C. Burant, S. S. Iyengar, 
 J. Tomasi, M. Cossi, J. M. Millam, M. Klene, C. Adamo, R. Cammi, 
 J. W. Ochterski, R. L. Martin, K. Morokuma, O. Farkas, 
 J. B. Foresman, and D. J. Fox, Gaussian, Inc., Wallingford CT, 2016.
 
 ******************************************
 Gaussian 16:  ES64L-G16RevA.03 25-Dec-2016
                24-Feb-2020 
 ******************************************
 %nprocshared=2
 Will use up to    2 processors via shared memory.
 %mem=2GB
 ---------------------------------------------------------------
 # opt=(calcfc,ts,noeigentest) freq cis/6-311++g(3df,3pd) scf=qc
 ---------------------------------------------------------------
 1/5=1,10=4,11=1,18=20,38=1/1,3;
 2/9=110,12=2,17=6,18=5,40=1/2;
 3/5=4,6=6,7=1616,11=9,25=1,30=1,71=2,140=1/1,2,3,8;
 4//1;
 5/5=2,8=3,38=5/8;
 8/6=1,10=2/1;
 9/15=3,42=1/14;
 10/5=3004,20=4/2;
 11/6=1,8=1,12=-1,16=1,42=3/1,2,10;
 10/6=3,21=1/2,14;
 6/7=2,8=2,9=2,10=2/1;
 7/10=1,12=6,13=8,18=20,25=1,44=2/1,2,3,16;
 1/5=1,10=4,11=1,18=20/3(2);
 2/9=110/2;
 99//99;
 2/9=110/2;
 3/5=4,6=6,7=1616,11=9,25=1,30=1,71=1/1,2,3,8;
 4/5=5,16=3,69=1/1;
 5/5=2,8=3,38=5/8;
 8/6=1,10=2/1;
 9/15=2,42=1,49=4/14;
 10/5=4/2;
 7/12=6,13=5/1,2,3,16;
 1/5=1,11=1,18=20/3(-8);
 2/9=110/2;
 6/7=2,8=2,9=2,10=2/1;
 99//99;
 -------------------
 Title Card Required
 -------------------
 Symbolic Z-matrix:
 Charge =  0 Multiplicity = 1
 N                     0.86369  0.        -0.03068 
 O                     1.50549  -1.03879  -0.16183 
 O                     1.50545   1.03882  -0.16181 
 O                    -0.19446  -0.00002   0.73966 
 Cl                   -1.68104  0.        -0.18315 
 

 GradGradGradGradGradGradGradGradGradGradGradGradGradGradGradGradGradGrad
 Berny optimization.
 Initialization pass.
                           ----------------------------
                           !    Initial Parameters    !
                           ! (Angstroms and Degrees)  !
 --------------------------                            --------------------------
 ! Name  Definition              Value          Derivative Info.                !
 --------------------------------------------------------------------------------
 ! R1    R(1,2)                  1.2281         calculate D2E/DX2 analytically  !
 ! R2    R(1,3)                  1.2281         calculate D2E/DX2 analytically  !
 ! R3    R(1,4)                  1.3089         calculate D2E/DX2 analytically  !
 ! R4    R(4,5)                  1.7497         calculate D2E/DX2 analytically  !
 ! A1    A(2,1,3)              115.5316         calculate D2E/DX2 analytically  !
 ! A2    A(2,1,4)              119.0348         calculate D2E/DX2 analytically  !
 ! A3    A(3,1,4)              119.0338         calculate D2E/DX2 analytically  !
 ! A4    A(1,4,5)              112.1153         calculate D2E/DX2 analytically  !
 ! D1    D(2,1,3,4)           -151.6794         calculate D2E/DX2 analytically  !
 ! D2    D(2,1,4,5)           -104.6589         calculate D2E/DX2 analytically  !
 ! D3    D(3,1,4,5)            104.656          calculate D2E/DX2 analytically  !
 --------------------------------------------------------------------------------
 Trust Radius=3.00D-01 FncErr=1.00D-07 GrdErr=1.00D-07 EigMax=2.50D+02 EigMin=1.00D-04
 Number of steps in this run=     21 maximum allowed number of steps=    100.
 Search for a saddle point of order  1.
 GradGradGradGradGradGradGradGradGradGradGradGradGradGradGradGradGradGrad

                          Input orientation:                          
 ---------------------------------------------------------------------
 Center     Atomic      Atomic             Coordinates (Angstroms)
 Number     Number       Type             X           Y           Z
 ---------------------------------------------------------------------
      1          7           0        0.863694   -0.000003   -0.030677
      2          8           0        1.505493   -1.038793   -0.161825
      3          8           0        1.505448    1.038819   -0.161806
      4          8           0       -0.194457   -0.000022    0.739657
      5         17           0       -1.681043   -0.000001   -0.183145
 ---------------------------------------------------------------------
                    Distance matrix (angstroms):
                    1          2          3          4          5
     1  N    0.000000
     2  O    1.228084   0.000000
     3  O    1.228086   2.077612   0.000000
     4  O    1.308854   2.186674   2.186665   0.000000
     5  Cl   2.549300   3.351650   3.351616   1.749715   0.000000
 Stoichiometry    ClNO3
 Framework group  C1[X(ClNO3)]
 Deg. of freedom     9
 Full point group                 C1      NOp   1
 Largest Abelian subgroup         C1      NOp   1
 Largest concise Abelian subgroup C1      NOp   1
                         Standard orientation:                         
 ---------------------------------------------------------------------
 Center     Atomic      Atomic             Coordinates (Angstroms)
 Number     Number       Type             X           Y           Z
 ---------------------------------------------------------------------
      1          7           0        0.863694   -0.000003   -0.030677
      2          8           0        1.505493   -1.038793   -0.161825
      3          8           0        1.505448    1.038819   -0.161806
      4          8           0       -0.194457   -0.000022    0.739657
      5         17           0       -1.681043   -0.000001   -0.183145
 ---------------------------------------------------------------------
 Rotational constants (GHZ):          11.1576539           2.6169338           2.3303748
 Standard basis: 6-311++G(3df,3pd) (5D, 7F)
 There are   233 symmetry adapted cartesian basis functions of A   symmetry.
 There are   203 symmetry adapted basis functions of A   symmetry.
   203 basis functions,   307 primitive gaussians,   233 cartesian basis functions
    24 alpha electrons       24 beta electrons
       nuclear repulsion energy       226.9569389734 Hartrees.
 NAtoms=    5 NActive=    5 NUniq=    5 SFac= 1.00D+00 NAtFMM=   60 NAOKFM=F Big=F
 Integral buffers will be    131072 words long.
 Raffenetti 1 integral format.
 Two-electron integral symmetry is turned on.
 One-electron integrals computed using PRISM.
 NBasis=   203 RedAO= T EigKep=  2.02D-04  NBF=   203
 NBsUse=   203 1.00D-06 EigRej= -1.00D+00 NBFU=   203
 ExpMin= 4.83D-02 ExpMax= 1.06D+05 ExpMxC= 3.62D+03 IAcc=3 IRadAn=         5 AccDes= 0.00D+00
 Harris functional with IExCor=  205 and IRadAn=       5 diagonalized for initial guess.
 HarFok:  IExCor=  205 AccDes= 0.00D+00 IRadAn=         5 IDoV= 1 UseB2=F ITyADJ=14
 ICtDFT=  3500011 ScaDFX=  1.000000  1.000000  1.000000  1.000000
 FoFCou: FMM=F IPFlag=           0 FMFlag=      100000 FMFlg1=           0
         NFxFlg=           0 DoJE=T BraDBF=F KetDBF=T FulRan=T
         wScrn=  0.000000 ICntrl=       500 IOpCl=  0 I1Cent=   200000004 NGrid=           0
         NMat0=    1 NMatS0=      1 NMatT0=    0 NMatD0=    1 NMtDS0=    0 NMtDT0=    0
 Petite list used in FoFCou.
 Keep R1 ints in memory in canonical form, NReq=220787261.
 Gradient too large for Newton-Raphson -- use scaled steepest descent instead.
     Minimum is close to point  3 DX=  4.62D-02 DF= -1.66D-03 DXR=  8.45D-02 DFR=  7.21D-03 which will be used.
 Gradient too large for Newton-Raphson -- use scaled steepest descent instead.
 Gradient too large for Newton-Raphson -- use scaled steepest descent instead.
     Accept linear search using points  1 and  2.
 Gradient too large for Newton-Raphson -- use scaled steepest descent instead.
     Accept linear search using points  2 and  3.
 Gradient too large for Newton-Raphson -- use scaled steepest descent instead.
     Accept linear search using points  1 and  2.
 LinEq1:  Iter=  0 NonCon=     1 RMS=3.65D-05 Max=8.93D-04 NDo=     1
 AX will form     1 AO Fock derivatives at one time.
 LinEq1:  Iter=  1 NonCon=     1 RMS=1.28D-05 Max=3.47D-04 NDo=     1
 LinEq1:  Iter=  2 NonCon=     1 RMS=5.22D-06 Max=1.41D-04 NDo=     1
 LinEq1:  Iter=  3 NonCon=     1 RMS=1.83D-06 Max=4.08D-05 NDo=     1
 LinEq1:  Iter=  4 NonCon=     1 RMS=5.28D-07 Max=1.10D-05 NDo=     1
 LinEq1:  Iter=  5 NonCon=     1 RMS=1.25D-07 Max=1.75D-06 NDo=     1
 LinEq1:  Iter=  6 NonCon=     1 RMS=4.98D-08 Max=1.12D-06 NDo=     1
 LinEq1:  Iter=  7 NonCon=     1 RMS=1.83D-08 Max=3.69D-07 NDo=     1
 LinEq1:  Iter=  8 NonCon=     1 RMS=7.14D-09 Max=1.52D-07 NDo=     1
 LinEq1:  Iter=  9 NonCon=     0 RMS=2.15D-09 Max=5.07D-08 NDo=     1
 Linear equations converged to 9.269D-09 9.269D-08 after     9 iterations.
     Accept linear search using points  1 and  2.
     Minimum is close to point  2 DX= -9.74D-04 DF= -1.83D-11 DXR=  9.75D-04 DFR=  9.54D-07 which will be used.
 LinEq1:  Iter=  0 NonCon=     1 RMS=6.88D-08 Max=2.08D-06 NDo=     1
 LinEq1:  Iter=  1 NonCon=     1 RMS=4.15D-08 Max=8.78D-07 NDo=     1
 LinEq1:  Iter=  2 NonCon=     1 RMS=9.31D-09 Max=2.17D-07 NDo=     1
 LinEq1:  Iter=  3 NonCon=     1 RMS=4.78D-09 Max=1.10D-07 NDo=     1
 LinEq1:  Iter=  4 NonCon=     1 RMS=1.83D-09 Max=4.61D-08 NDo=     1
 LinEq1:  Iter=  5 NonCon=     1 RMS=6.05D-10 Max=1.33D-08 NDo=     1
 LinEq1:  Iter=  6 NonCon=     1 RMS=1.83D-10 Max=3.10D-09 NDo=     1
 LinEq1:  Iter=  7 NonCon=     1 RMS=6.52D-11 Max=1.14D-09 NDo=     1
 LinEq1:  Iter=  8 NonCon=     0 RMS=2.41D-11 Max=6.02D-10 NDo=     1
 Linear equations converged to 8.260D-11 8.260D-10 after     8 iterations.
 SCF Done:  E(RHF) =  -738.353765969     a.u. after    8 cycles
            Convg  =    0.1189D-07                    34 Fock formations.
              S**2 =  0.0000                  -V/T =  2.0006
 ExpMin= 4.83D-02 ExpMax= 1.06D+05 ExpMxC= 3.62D+03 IAcc=3 IRadAn=         5 AccDes= 0.00D+00
 HarFok:  IExCor=  205 AccDes= 0.00D+00 IRadAn=         5 IDoV=-2 UseB2=F ITyADJ=14
 ICtDFT= 12500011 ScaDFX=  1.000000  1.000000  1.000000  1.000000
 Range of M.O.s used for correlation:    10   203
 NBasis=   203 NAE=    24 NBE=    24 NFC=     9 NFV=     0
 NROrb=    194 NOA=    15 NOB=    15 NVA=   179 NVB=   179

 **** Warning!!: The largest alpha MO coefficient is  0.19524577D+02

 Orbital symmetries:
       Occupied  (A) (A) (A) (A) (A) (A) (A) (A) (A) (A) (A) (A)
                 (A) (A) (A) (A) (A) (A) (A) (A) (A) (A) (A) (A)
       Virtual   (A) (A) (A) (A) (A) (A) (A) (A) (A) (A) (A) (A)
                 (A) (A) (A) (A) (A) (A) (A) (A) (A) (A) (A) (A)
                 (A) (A) (A) (A) (A) (A) (A) (A) (A) (A) (A) (A)
                 (A) (A) (A) (A) (A) (A) (A) (A) (A) (A) (A) (A)
                 (A) (A) (A) (A) (A) (A) (A) (A) (A) (A) (A) (A)
                 (A) (A) (A) (A) (A) (A) (A) (A) (A) (A) (A) (A)
                 (A) (A) (A) (A) (A) (A) (A) (A) (A) (A) (A) (A)
                 (A) (A) (A) (A) (A) (A) (A) (A) (A) (A) (A) (A)
                 (A) (A) (A) (A) (A) (A) (A) (A) (A) (A) (A) (A)
                 (A) (A) (A) (A) (A) (A) (A) (A) (A) (A) (A) (A)
                 (A) (A) (A) (A) (A) (A) (A) (A) (A) (A) (A) (A)
                 (A) (A) (A) (A) (A) (A) (A) (A) (A) (A) (A) (A)
                 (A) (A) (A) (A) (A) (A) (A) (A) (A) (A) (A) (A)
                 (A) (A) (A) (A) (A) (A) (A) (A) (A) (A) (A) (A)
                 (A) (A) (A) (A) (A) (A) (A) (A) (A) (A) (A)
    12 initial guesses have been made.
 Convergence on wavefunction:    0.000001000000000
 Iteration     1 Dimension    12 NMult     0 NNew     12
 CISAX will form    12 AO SS matrices at one time.
 New state      1 was old state      2
 New state      2 was old state      3
 New state      3 was old state      4
 Iteration     2 Dimension    24 NMult    12 NNew     12
 Iteration     3 Dimension    27 NMult    24 NNew      3
 Iteration     4 Dimension    30 NMult    27 NNew      3
 Iteration     5 Dimension    33 NMult    30 NNew      3
 Iteration     6 Dimension    36 NMult    33 NNew      3
 Iteration     7 Dimension    39 NMult    36 NNew      3
 Iteration     8 Dimension    42 NMult    39 NNew      3
 Iteration     9 Dimension    45 NMult    42 NNew      3
 Iteration    10 Dimension    46 NMult    45 NNew      1
 ***********************************************************************
 Excited states from <AA,BB:AA,BB> singles matrix:
 ***********************************************************************
 
 Ground to excited state transition densities written to RWF  633
 Ground to excited state transition electric dipole moments (Au):
       state          X           Y           Z        Dip. S.      Osc.
         1        -0.0000     -0.0534     -0.0000      0.0028      0.0003
         2         0.0000      0.0087     -0.0000      0.0001      0.0000
         3         0.1417     -0.0000      0.0132      0.0203      0.0024
 Ground to excited state transition velocity dipole moments (Au):
       state          X           Y           Z        Dip. S.      Osc.
         1         0.0000     -0.0451      0.0000      0.0020      0.0098
         2        -0.0000     -0.0766     -0.0000      0.0059      0.0257
         3         0.0181      0.0000     -0.0595      0.0039      0.0142
 Ground to excited state transition magnetic dipole moments (Au):
       state          X           Y           Z
         1        -0.4632     -0.0000      0.0743
         2         0.5668      0.0000     -0.5115
         3        -0.0000      0.9020      0.0000
 Ground to excited state transition velocity quadrupole moments (Au):
       state          XX          YY          ZZ          XY          XZ          YZ
         1        -0.0000      0.0000     -0.0000      0.0373      0.0000      0.0071
         2         0.0000      0.0000     -0.0000      0.1887      0.0000     -0.0130
         3        -0.2158     -0.0082      0.0204     -0.0000      0.1690      0.0000
 <0|del|b> * <b|rxdel|0> + <0|del|b> * <b|delr+rdel|0>
 Rotatory Strengths (R) in cgs (10**-40 erg-esu-cm/Gauss)
       state          XX          YY          ZZ    R(velocity)    E-M Angle
         1         0.0035     -0.0020     -0.0008      0.0002       90.00
         2        -0.0002     -0.0003     -0.0045     -0.0017       90.00
         3         0.0005     -0.0026      0.0017     -0.0002       90.00
 1/2[<0|r|b>*<b|rxdel|0> + (<0|rxdel|b>*<b|r|0>)*]
 Rotatory Strengths (R) in cgs (10**-40 erg-esu-cm/Gauss)
       state          XX          YY          ZZ     R(length)
         1        -0.0003     -0.0007      0.0002     -0.0002
         2        -0.0014     -0.0001     -0.0005     -0.0006
         3         0.0007      0.0029     -0.0001      0.0011
  1/2[<0|del|b>*<b|r|0> + (<0|r|b>*<b|del|0>)*] (Au)
       state          X           Y           Z        Dip. S.   Osc.(frdel)
         1        -0.0000      0.0024     -0.0000     -0.0024     -0.0016
         2        -0.0000     -0.0007      0.0000      0.0007      0.0004
         3         0.0026     -0.0000     -0.0008     -0.0018     -0.0012

 Excitation energies and oscillator strengths:
 
 Excited State   1:      Singlet-A      3.7769 eV  328.27 nm  f=0.0003  <S**2>=0.000
      22 -> 26         0.25536
      23 -> 25         0.47875
      23 -> 26        -0.38893
 This state for optimization and/or second-order correction.
 Total Energy, E(CIS/TDA) =  -738.214967456    
 Copying the excited state density for this state as the 1-particle RhoCI density.
 
 Excited State   2:      Singlet-A      4.1434 eV  299.23 nm  f=0.0000  <S**2>=0.000
      22 -> 25         0.54493
      22 -> 30        -0.11490
      23 -> 25         0.24027
      23 -> 26         0.26280
      23 -> 30        -0.12545
      24 -> 25        -0.13253
 
 Excited State   3:      Singlet-A      4.9276 eV  251.61 nm  f=0.0024  <S**2>=0.000
      20 -> 25         0.13593
      20 -> 26         0.13531
      21 -> 25         0.63469
      21 -> 26         0.13258
      21 -> 30        -0.13734
 SavETr:  write IOETrn=   770 NScale= 10 NData=  16 NLR=1 NState=    3 LETran=      64.
          IDoAtm=11111
          Differentiating once with respect to electric field.
                with respect to dipole field.
          Differentiating once with respect to nuclear coordinates.
 Keep R1 ints in memory in canonical form, NReq=220788045.
          There are     1 degrees of freedom in the 1st order CPHF.  IDoFFX=0 NUNeed=     1.
 LinEq1:  Iter=  0 NonCon=     1 RMS=7.07D-03 Max=1.29D-01 NDo=     1
 AX will form     1 AO Fock derivatives at one time.
 LinEq1:  Iter=  1 NonCon=     1 RMS=3.13D-03 Max=4.83D-02 NDo=     1
 LinEq1:  Iter=  2 NonCon=     1 RMS=7.20D-04 Max=1.96D-02 NDo=     1
 LinEq1:  Iter=  3 NonCon=     1 RMS=2.77D-04 Max=3.42D-03 NDo=     1
 LinEq1:  Iter=  4 NonCon=     1 RMS=9.92D-05 Max=2.19D-03 NDo=     1
 LinEq1:  Iter=  5 NonCon=     1 RMS=3.89D-05 Max=9.88D-04 NDo=     1
 LinEq1:  Iter=  6 NonCon=     1 RMS=1.14D-05 Max=1.33D-04 NDo=     1
 LinEq1:  Iter=  7 NonCon=     1 RMS=2.46D-06 Max=4.50D-05 NDo=     1
 LinEq1:  Iter=  8 NonCon=     1 RMS=6.39D-07 Max=1.55D-05 NDo=     1
 LinEq1:  Iter=  9 NonCon=     1 RMS=1.91D-07 Max=4.22D-06 NDo=     1
 LinEq1:  Iter= 10 NonCon=     1 RMS=5.12D-08 Max=6.48D-07 NDo=     1
 LinEq1:  Iter= 11 NonCon=     1 RMS=1.32D-08 Max=2.12D-07 NDo=     1
 LinEq1:  Iter= 12 NonCon=     1 RMS=5.92D-09 Max=1.51D-07 NDo=     1
 LinEq1:  Iter= 13 NonCon=     1 RMS=2.85D-09 Max=4.26D-08 NDo=     1
 LinEq1:  Iter= 14 NonCon=     1 RMS=7.56D-10 Max=1.77D-08 NDo=     1
 LinEq1:  Iter= 15 NonCon=     1 RMS=2.03D-10 Max=5.42D-09 NDo=     1
 LinEq1:  Iter= 16 NonCon=     1 RMS=6.24D-11 Max=2.10D-09 NDo=     1
 LinEq1:  Iter= 17 NonCon=     0 RMS=1.19D-11 Max=1.97D-10 NDo=     1
 Linear equations converged to 1.000D-10 1.000D-09 after    17 iterations.
          There are     1 degrees of freedom in the 1st order CPHF.  IDoFFX=0 NUNeed=     1.
 LinEq1:  Iter=  0 NonCon=     1 RMS=4.11D-02 Max=1.97D+00 NDo=     1
 LinEq1:  Iter=  1 NonCon=     1 RMS=3.98D-03 Max=7.58D-02 NDo=     1
 LinEq1:  Iter=  2 NonCon=     1 RMS=1.23D-03 Max=3.87D-02 NDo=     1
 LinEq1:  Iter=  3 NonCon=     1 RMS=5.53D-04 Max=9.86D-03 NDo=     1
 LinEq1:  Iter=  4 NonCon=     1 RMS=2.19D-04 Max=7.65D-03 NDo=     1
 LinEq1:  Iter=  5 NonCon=     1 RMS=6.36D-05 Max=1.70D-03 NDo=     1
 LinEq1:  Iter=  6 NonCon=     1 RMS=1.14D-05 Max=2.05D-04 NDo=     1
 LinEq1:  Iter=  7 NonCon=     1 RMS=2.76D-06 Max=6.34D-05 NDo=     1
 LinEq1:  Iter=  8 NonCon=     1 RMS=6.32D-07 Max=8.56D-06 NDo=     1
 LinEq1:  Iter=  9 NonCon=     1 RMS=1.14D-07 Max=2.00D-06 NDo=     1
 LinEq1:  Iter= 10 NonCon=     1 RMS=2.10D-08 Max=3.19D-07 NDo=     1
 LinEq1:  Iter= 11 NonCon=     1 RMS=6.88D-09 Max=1.12D-07 NDo=     1
 LinEq1:  Iter= 12 NonCon=     1 RMS=3.26D-09 Max=6.25D-08 NDo=     1
 LinEq1:  Iter= 13 NonCon=     1 RMS=9.97D-10 Max=2.06D-08 NDo=     1
 LinEq1:  Iter= 14 NonCon=     1 RMS=4.15D-10 Max=7.19D-09 NDo=     1
 LinEq1:  Iter= 15 NonCon=     1 RMS=2.23D-10 Max=3.02D-09 NDo=     1
 LinEq1:  Iter= 16 NonCon=     1 RMS=5.58D-11 Max=1.50D-09 NDo=     1
 LinEq1:  Iter= 17 NonCon=     0 RMS=1.05D-11 Max=2.30D-10 NDo=     1
 Linear equations converged to 1.000D-10 1.000D-09 after    17 iterations.
 End of Minotr F.D. properties file   721 does not exist.
 End of Minotr F.D. properties file   722 does not exist.
 End of Minotr F.D. properties file   788 does not exist.
 Symmetrizing basis deriv contribution to polar:
 IMax=3 JMax=2 DiffMx= 0.00D+00
 G2DrvN: will do     6 centers at a time, making    1 passes.
 Calling FoFCou, ICntrl=  3107 FMM=F I1Cent=   0 AccDes= 0.00D+00.
 G2DrvN: will do     6 centers at a time, making    1 passes.
 Calling FoFCou, ICntrl=  3107 FMM=F I1Cent=   0 AccDes= 0.00D+00.
 G2DrvN: will do     6 centers at a time, making    1 passes.
 Calling FoFCou, ICntrl=  3107 FMM=F I1Cent=   0 AccDes= 0.00D+00.
 End of G2Drv F.D. properties file   721 does not exist.
 End of G2Drv F.D. properties file   722 does not exist.
 End of G2Drv F.D. properties file   788 does not exist.
          IDoAtm=11111
          Differentiating once with respect to electric field.
                with respect to dipole field.
          Differentiating once with respect to nuclear coordinates.
 Keep R1 ints in memory in canonical form, NReq=220788045.
          There are    18 degrees of freedom in the 1st order CPHF.  IDoFFX=6 NUNeed=    18.
     15 vectors produced by pass  0 Test12= 2.39D-14 5.56D-09 XBig12= 1.30D+01 2.16D+00.
 AX will form    15 AO Fock derivatives at one time.
     15 vectors produced by pass  1 Test12= 2.39D-14 5.56D-09 XBig12= 2.00D+00 2.35D-01.
     15 vectors produced by pass  2 Test12= 2.39D-14 5.56D-09 XBig12= 1.97D-01 1.07D-01.
     15 vectors produced by pass  3 Test12= 2.39D-14 5.56D-09 XBig12= 7.27D-03 1.91D-02.
     15 vectors produced by pass  4 Test12= 2.39D-14 5.56D-09 XBig12= 2.75D-04 3.35D-03.
     15 vectors produced by pass  5 Test12= 2.39D-14 5.56D-09 XBig12= 5.83D-06 6.14D-04.
     15 vectors produced by pass  6 Test12= 2.39D-14 5.56D-09 XBig12= 8.37D-08 5.48D-05.
     15 vectors produced by pass  7 Test12= 2.39D-14 5.56D-09 XBig12= 1.03D-09 5.07D-06.
      5 vectors produced by pass  8 Test12= 2.39D-14 5.56D-09 XBig12= 9.23D-12 5.03D-07.
      3 vectors produced by pass  9 Test12= 2.39D-14 5.56D-09 XBig12= 8.24D-14 4.74D-08.
 InvSVY:  IOpt=1 It=  1 EMax= 2.22D-15
 Solved reduced A of dimension   128 with    15 vectors.
 Isotropic polarizability for W=    0.000000       39.01 Bohr**3.
 End of Minotr F.D. properties file   721 does not exist.
 End of Minotr F.D. properties file   722 does not exist.
 End of Minotr F.D. properties file   788 does not exist.
 This link is doing    18 degrees of freedom
 Form MO integral derivatives with frozen-active canonical formalism.
 CISSec: MDV=     268434413
 Doing CIS/TDA second derivatives, IDoFFX=6 IOneXC=4 IRadAn=         1.
 Frozen orbitals handled with amplitudes over full window.
 CISAX will form    18 AO SS matrices at one time.
     15 vectors produced by pass  0 Test12= 1.49D-14 5.56D-09 XBig12= 3.13D+00 1.03D+00.
 AX will form    15 AO Fock derivatives at one time.
     15 vectors produced by pass  1 Test12= 1.49D-14 5.56D-09 XBig12= 8.68D-02 1.36D-01.
     15 vectors produced by pass  2 Test12= 1.49D-14 5.56D-09 XBig12= 9.13D-03 4.51D-02.
     15 vectors produced by pass  3 Test12= 1.49D-14 5.56D-09 XBig12= 4.06D-04 5.12D-03.
     15 vectors produced by pass  4 Test12= 1.49D-14 5.56D-09 XBig12= 4.30D-06 6.02D-04.
     15 vectors produced by pass  5 Test12= 1.49D-14 5.56D-09 XBig12= 5.83D-08 7.14D-05.
     15 vectors produced by pass  6 Test12= 1.49D-14 5.56D-09 XBig12= 6.71D-10 5.27D-06.
     15 vectors produced by pass  7 Test12= 1.49D-14 5.56D-09 XBig12= 9.02D-12 5.51D-07.
      5 vectors produced by pass  8 Test12= 1.49D-14 5.56D-09 XBig12= 9.20D-14 7.50D-08.
      1 vectors produced by pass  9 Test12= 1.49D-14 5.56D-09 XBig12= 1.37D-15 7.95D-09.
 InvSVY:  IOpt=1 It=  1 EMax= 1.78D-15
 Solved reduced A of dimension   126 with    15 vectors.
 SavDET:  read IOETrn=   770 NScale= 10 NData=  16 NLR=1 NState=    3 NDeriv=    0 LETran=      64.
 SavDET: write IOETrn=   770 NScale= 10 NData=  16 NLR=1 NState=    3 NDeriv=   18 LETran=     352.
 TDDxLx will form    18 C1x/S1x matrices at one time.
 Interchange theorem applied.

 **********************************************************************

            Population analysis using the SCF density.

 **********************************************************************

 Orbital symmetries:
       Occupied  (A) (A) (A) (A) (A) (A) (A) (A) (A) (A) (A) (A)
                 (A) (A) (A) (A) (A) (A) (A) (A) (A) (A) (A) (A)
       Virtual   (A) (A) (A) (A) (A) (A) (A) (A) (A) (A) (A) (A)
                 (A) (A) (A) (A) (A) (A) (A) (A) (A) (A) (A) (A)
                 (A) (A) (A) (A) (A) (A) (A) (A) (A) (A) (A) (A)
                 (A) (A) (A) (A) (A) (A) (A) (A) (A) (A) (A) (A)
                 (A) (A) (A) (A) (A) (A) (A) (A) (A) (A) (A) (A)
                 (A) (A) (A) (A) (A) (A) (A) (A) (A) (A) (A) (A)
                 (A) (A) (A) (A) (A) (A) (A) (A) (A) (A) (A) (A)
                 (A) (A) (A) (A) (A) (A) (A) (A) (A) (A) (A) (A)
                 (A) (A) (A) (A) (A) (A) (A) (A) (A) (A) (A) (A)
                 (A) (A) (A) (A) (A) (A) (A) (A) (A) (A) (A) (A)
                 (A) (A) (A) (A) (A) (A) (A) (A) (A) (A) (A) (A)
                 (A) (A) (A) (A) (A) (A) (A) (A) (A) (A) (A) (A)
                 (A) (A) (A) (A) (A) (A) (A) (A) (A) (A) (A) (A)
                 (A) (A) (A) (A) (A) (A) (A) (A) (A) (A) (A) (A)
                 (A) (A) (A) (A) (A) (A) (A) (A) (A) (A) (A)
 The electronic state is 1-A.
 Alpha  occ. eigenvalues -- -104.96620 -20.75288 -20.63704 -20.63698 -15.93289
 Alpha  occ. eigenvalues --  -10.68591  -8.15391  -8.14991  -8.14970  -1.70248
 Alpha  occ. eigenvalues --   -1.49250  -1.41984  -1.16637  -0.94587  -0.81769
 Alpha  occ. eigenvalues --   -0.80281  -0.79333  -0.66459  -0.63179  -0.58447
 Alpha  occ. eigenvalues --   -0.53818  -0.52998  -0.50285  -0.47287
 Alpha virt. eigenvalues --   -0.01688   0.03895   0.07478   0.10453   0.11163
 Alpha virt. eigenvalues --    0.13338   0.15010   0.15993   0.17329   0.23754
 Alpha virt. eigenvalues --    0.25799   0.26092   0.28033   0.28414   0.32229
 Alpha virt. eigenvalues --    0.33026   0.34041   0.36071   0.37767   0.38778
 Alpha virt. eigenvalues --    0.42321   0.44028   0.44048   0.46111   0.46278
 Alpha virt. eigenvalues --    0.47259   0.49324   0.51990   0.56083   0.56590
 Alpha virt. eigenvalues --    0.59543   0.59949   0.63496   0.76676   0.81021
 Alpha virt. eigenvalues --    0.83947   0.93234   0.96342   0.98459   1.01350
 Alpha virt. eigenvalues --    1.02582   1.06741   1.13140   1.14400   1.16809
 Alpha virt. eigenvalues --    1.17272   1.18485   1.19884   1.23874   1.24012
 Alpha virt. eigenvalues --    1.24673   1.25257   1.27667   1.28995   1.30197
 Alpha virt. eigenvalues --    1.34155   1.37297   1.37426   1.40844   1.42158
 Alpha virt. eigenvalues --    1.44507   1.46595   1.57458   1.63095   1.63412
 Alpha virt. eigenvalues --    1.71714   1.74483   1.77391   1.85452   1.93024
 Alpha virt. eigenvalues --    1.98247   2.10614   2.32941   2.33179   2.36726
 Alpha virt. eigenvalues --    2.39231   2.41719   2.46733   2.47122   2.51692
 Alpha virt. eigenvalues --    2.52348   2.57275   2.57542   2.61288   2.66251
 Alpha virt. eigenvalues --    2.69729   2.80344   2.83627   2.98474   3.11526
 Alpha virt. eigenvalues --    3.36081   3.47784   3.52745   3.52914   3.66610
 Alpha virt. eigenvalues --    3.69036   3.78766   3.79461   3.80913   3.84884
 Alpha virt. eigenvalues --    3.90737   3.93498   4.02970   4.09404   4.18394
 Alpha virt. eigenvalues --    4.24804   4.29280   4.36564   4.47565   4.58720
 Alpha virt. eigenvalues --    4.59961   4.85929   4.97164   5.11842   5.14877
 Alpha virt. eigenvalues --    5.26285   5.32725   5.37933   5.43028   5.44663
 Alpha virt. eigenvalues --    5.44768   5.45929   5.50019   5.52779   5.57385
 Alpha virt. eigenvalues --    5.58199   5.64653   5.65263   5.69187   5.75638
 Alpha virt. eigenvalues --    5.75666   5.78132   5.81026   5.90380   5.99674
 Alpha virt. eigenvalues --    6.01716   6.03183   6.08195   6.10698   6.12382
 Alpha virt. eigenvalues --    6.43845   6.44475   6.54839   6.72635   6.79538
 Alpha virt. eigenvalues --    6.86829   6.89715   7.66681   7.98909   8.31095
 Alpha virt. eigenvalues --   10.50708  10.81919  10.85031  10.96019  11.61279
 Alpha virt. eigenvalues --   11.66343  14.92263  14.95207  14.96442  14.97956
 Alpha virt. eigenvalues --   14.98313  14.99371  15.11994  15.14028  15.26623
 Alpha virt. eigenvalues --   15.31095  15.34177  15.41891  15.49845  15.88754
 Alpha virt. eigenvalues --   16.11774  26.62742  26.77785  27.86274  37.38629
 Alpha virt. eigenvalues --   51.79605  52.01551  52.06706 219.38922
          Condensed to atoms (all electrons):
               1          2          3          4          5
     1  N    6.168857  -0.007368  -0.007363  -0.458399  -0.194497
     2  O   -0.007368   8.897157  -0.176862  -0.137430   0.028680
     3  O   -0.007363  -0.176862   8.897159  -0.137438   0.028681
     4  O   -0.458399  -0.137430  -0.137438   9.146378   0.041454
     5  Cl  -0.194497   0.028680   0.028681   0.041454  16.931536
 Mulliken charges:
               1
     1  N    1.498771
     2  O   -0.604175
     3  O   -0.604178
     4  O   -0.454565
     5  Cl   0.164147
 Sum of Mulliken charges =   0.00000
 Mulliken charges with hydrogens summed into heavy atoms:
               1
     1  N    1.498771
     2  O   -0.604175
     3  O   -0.604178
     4  O   -0.454565
     5  Cl   0.164147
 APT charges:
               1
     1  N    0.342674
     2  O   -0.196098
     3  O   -0.196079
     4  O   -0.216641
     5  Cl   0.266143
 Sum of APT charges =   0.00000
 APT charges with hydrogens summed into heavy atoms:
               1
     1  N    0.342674
     2  O   -0.196098
     3  O   -0.196079
     4  O   -0.216641
     5  Cl   0.266143
 Electronic spatial extent (au):  <R**2>=            478.6618
 Charge=              0.0000 electrons
 Dipole moment (field-independent basis, Debye):
    X=             -3.4661    Y=             -0.0000    Z=             -0.0599  Tot=              3.4666
 Quadrupole moment (field-independent basis, Debye-Ang):
   XX=            -33.3558   YY=            -37.3408   ZZ=            -32.9221
   XY=             -0.0000   XZ=              2.3120   YZ=             -0.0000
 Traceless Quadrupole moment (field-independent basis, Debye-Ang):
   XX=              1.1838   YY=             -2.8012   ZZ=              1.6174
   XY=             -0.0000   XZ=              2.3120   YZ=             -0.0000
 Octapole moment (field-independent basis, Debye-Ang**2):
  XXX=            -15.8966  YYY=             -0.0001  ZZZ=              1.2599  XYY=             -2.6118
  XXY=              0.0001  XXZ=             -0.7421  XZZ=              0.2194  YZZ=              0.0000
  YYZ=              0.9637  XYZ=              0.0000
 Hexadecapole moment (field-independent basis, Debye-Ang**3):
 XXXX=           -384.5697 YYYY=           -105.1068 ZZZZ=            -49.6086 XXXY=             -0.0002
 XXXZ=             14.8442 YYYX=              0.0000 YYYZ=             -0.0000 ZZZX=              0.5596
 ZZZY=             -0.0000 XXYY=            -89.7662 XXZZ=            -72.7515 YYZZ=            -25.7699
 XXYZ=             -0.0001 YYXZ=              0.3090 ZZXY=             -0.0000
 N-N= 2.269569389734D+02 E-N=-2.206251175369D+03  KE= 7.378918100055D+02
  Exact polarizability:  59.688  -0.001  58.354   2.395   0.000  27.317
 Approx polarizability:  40.752  -0.000  39.200   2.155   0.000  28.139
 Calling FoFJK, ICntrl=  10105147 FMM=F ISym2X=0 I1Cent= 0 IOpClX= 0 NMat=1 NMatS=1 NMatT=0.
 Calling FoFJK, ICntrl=  10002147 FMM=F ISym2X=0 I1Cent= 0 IOpClX= 0 NMat=1 NMatS=1 NMatT=0.
 ***** Axes restored to original set *****
 -------------------------------------------------------------------
 Center     Atomic                   Forces (Hartrees/Bohr)
 Number     Number              X              Y              Z
 -------------------------------------------------------------------
      1        7          -0.002815902    0.000004607   -0.003381053
      2        8           0.001369722    0.002518992    0.000837532
      3        8           0.001370678   -0.002521939    0.000838504
      4        8          -0.014792836   -0.000001314   -0.007239247
      5       17           0.014868338   -0.000000346    0.008944264
 -------------------------------------------------------------------
 Cartesian Forces:  Max     0.014868338 RMS     0.006374573
 -------------------------------------------------------------------
 Center     Atomic                Nonadiabatic Coup. (Bohr^-1)
 Number     Number              X              Y              Z
 -------------------------------------------------------------------
      1        7          -0.000008007    0.284265585    0.000005773
      2        8           0.014886738   -0.109431175   -0.126510113
      3        8          -0.014882338   -0.109433010    0.126503400
      4        8           0.000001740   -0.013733154   -0.000000971
      5       17          -0.000000087   -0.006565165   -0.000000784
 -------------------------------------------------------------------
 Cartesian Nonad. Coup.:  Max     0.284265585 RMS     0.095721961
 FormGI is forming the generalized inverse of G from B-inverse, IUseBI=4.

 GradGradGradGradGradGradGradGradGradGradGradGradGradGradGradGradGradGrad
 Berny optimization.
 Internal  Forces:  Max     0.017349234 RMS     0.005462016
 Search for a saddle point.
 Step number   1 out of a maximum of   21
 All quantities printed in internal units (Hartrees-Bohrs-Radians)
 Swapping is turned off.
 Second derivative matrix not updated -- analytic derivatives used.
 The second derivative matrix:
                          R1        R2        R3        R4        A1
           R1           0.65240
           R2           0.05189   0.65239
           R3           0.00872   0.00873   0.42917
           R4           0.14300   0.14300   0.13712  -0.09933
           A1           0.12403   0.12411   0.01184  -0.18790   0.02971
           A2          -0.03064  -0.07569   0.00035   0.07864  -0.02130
           A3          -0.06033  -0.01127   0.02015   0.04610  -0.04560
           A4           0.04308   0.04308   0.08765  -0.03193  -0.05897
           D1          -0.06061  -0.05546  -0.06619   0.10880   0.08155
           D2           0.05057   0.05975   0.03602  -0.09414  -0.03517
           D3          -0.05540  -0.05492  -0.03602   0.09414   0.03519
                          A2        A3        A4        D1        D2
           A2           0.12837
           A3          -0.10125   0.16975
           A4           0.02515   0.01650   0.29834
           D1          -0.04984  -0.01547   0.02893  -0.01974
           D2          -0.00316   0.02455  -0.02690   0.02970  -0.01324
           D3          -0.00937  -0.01090   0.02690  -0.02828   0.02616
                          D3
           D3          -0.01566
 ITU=  0
     Eigenvalues ---   -0.48976   0.01099   0.06397   0.18664   0.24986
     Eigenvalues ---    0.28182   0.49987   0.60699   0.80181
 Eigenvectors required to have negative eigenvalues:
                          R4        A1        D1        D3        D2
   1                    0.65884   0.41810  -0.34937  -0.26220   0.26040
                          R2        R1        R3        A2        A4
   1                   -0.17761  -0.17459  -0.15676  -0.14896   0.13175
 RFO step:  Lambda0=4.095821099D-04 Lambda=-9.23052495D-04.
 Linear search not attempted -- option 19 set.
 Iteration  1 RMS(Cart)=  0.01984519 RMS(Int)=  0.00066785
 Iteration  2 RMS(Cart)=  0.00043188 RMS(Int)=  0.00051670
 Iteration  3 RMS(Cart)=  0.00000008 RMS(Int)=  0.00051670
 Variable       Old X    -DE/DX   Delta X   Delta X   Delta X     New X
                                 (Linear)    (Quad)   (Total)
    R1        2.32074  -0.00150   0.00000  -0.00847  -0.00847   2.31227
    R2        2.32075  -0.00151   0.00000  -0.00851  -0.00851   2.31224
    R3        2.47338   0.00094   0.00000  -0.00493  -0.00493   2.46844
    R4        3.30648  -0.01735   0.00000  -0.04515  -0.04515   3.26133
    A1        2.01641  -0.00335   0.00000   0.01903   0.01810   2.03451
    A2        2.07755   0.00144   0.00000   0.00790   0.00688   2.08442
    A3        2.07753   0.00097   0.00000   0.00830   0.00737   2.08490
    A4        1.95678  -0.00080   0.00000   0.01345   0.01345   1.97023
    D1       -2.64730   0.00156   0.00000  -0.07450  -0.07489  -2.72220
    D2       -1.82664  -0.00149   0.00000   0.03998   0.03996  -1.78668
    D3        1.82659   0.00149   0.00000  -0.04028  -0.04026   1.78634
         Item               Value     Threshold  Converged?
 Maximum Force            0.017349     0.000450     NO 
 RMS     Force            0.005462     0.000300     NO 
 Maximum Displacement     0.038466     0.001800     NO 
 RMS     Displacement     0.019908     0.001200     NO 
 Predicted change in Energy=-2.615515D-04
 GradGradGradGradGradGradGradGradGradGradGradGradGradGradGradGradGradGrad

                          Input orientation:                          
 ---------------------------------------------------------------------
 Center     Atomic      Atomic             Coordinates (Angstroms)
 Number     Number       Type             X           Y           Z
 ---------------------------------------------------------------------
      1          7           0        0.870852    0.000076   -0.011868
      2          8           0        1.494525   -1.040835   -0.169138
      3          8           0        1.494608    1.040905   -0.169230
      4          8           0       -0.200162   -0.000163    0.735930
      5         17           0       -1.660688    0.000016   -0.183490
 ---------------------------------------------------------------------
                    Distance matrix (angstroms):
                    1          2          3          4          5
     1  N    0.000000
     2  O    1.223600   0.000000
     3  O    1.223584   2.081740   0.000000
     4  O    1.306244   2.184974   2.185265   0.000000
     5  Cl   2.537351   3.322490   3.322581   1.725824   0.000000
 Stoichiometry    ClNO3
 Framework group  C1[X(ClNO3)]
 Deg. of freedom     9
 Full point group                 C1      NOp   1
 Largest Abelian subgroup         C1      NOp   1
 Largest concise Abelian subgroup C1      NOp   1
                         Standard orientation:                         
 ---------------------------------------------------------------------
 Center     Atomic      Atomic             Coordinates (Angstroms)
 Number     Number       Type             X           Y           Z
 ---------------------------------------------------------------------
      1          7           0        0.867200    0.000054   -0.010196
      2          8           0        1.491066   -1.040848   -0.166755
      3          8           0        1.491202    1.040892   -0.166521
      4          8           0       -0.204862   -0.000274    0.736100
      5         17           0       -1.664097    0.000086   -0.185366
 ---------------------------------------------------------------------
 Rotational constants (GHZ):          11.1279499           2.6613212           2.3638075
 Standard basis: 6-311++G(3df,3pd) (5D, 7F)
 There are   233 symmetry adapted cartesian basis functions of A   symmetry.
 There are   203 symmetry adapted basis functions of A   symmetry.
   203 basis functions,   307 primitive gaussians,   233 cartesian basis functions
    24 alpha electrons       24 beta electrons
       nuclear repulsion energy       228.2308180371 Hartrees.
 NAtoms=    5 NActive=    5 NUniq=    5 SFac= 1.00D+00 NAtFMM=   60 NAOKFM=F Big=F
 Integral buffers will be    131072 words long.
 Raffenetti 1 integral format.
 Two-electron integral symmetry is turned on.
 One-electron integrals computed using PRISM.
 NBasis=   203 RedAO= T EigKep=  1.94D-04  NBF=   203
 NBsUse=   203 1.00D-06 EigRej= -1.00D+00 NBFU=   203
 Initial guess from the checkpoint file:  "/localscratch/alrebei.28376396.0/Gau-28058.chk"
 B after Tr=    -0.000000   -0.000000    0.000000
         Rot=    1.000000   -0.000079    0.000819    0.000014 Ang=  -0.09 deg.
 ExpMin= 4.83D-02 ExpMax= 1.06D+05 ExpMxC= 3.62D+03 IAcc=2 IRadAn=         4 AccDes= 0.00D+00
 Harris functional with IExCor=  205 and IRadAn=       4 diagonalized for initial guess.
 HarFok:  IExCor=  205 AccDes= 0.00D+00 IRadAn=         4 IDoV= 1 UseB2=F ITyADJ=14
 ICtDFT=  3500011 ScaDFX=  1.000000  1.000000  1.000000  1.000000
 FoFCou: FMM=F IPFlag=           0 FMFlag=      100000 FMFlg1=           0
         NFxFlg=           0 DoJE=T BraDBF=F KetDBF=T FulRan=T
         wScrn=  0.000000 ICntrl=       500 IOpCl=  0 I1Cent=   200000004 NGrid=           0
         NMat0=    1 NMatS0=      1 NMatT0=    0 NMatD0=    1 NMtDS0=    0 NMtDT0=    0
 Petite list used in FoFCou.
 Keep R1 ints in memory in canonical form, NReq=220787261.
 Gradient too large for Newton-Raphson -- use scaled steepest descent instead.
     Minimum is close to point  4 DX=  2.54D-02 DF= -3.13D-07 DXR=  2.07D-02 DFR=  4.31D-04 which will be used.
 Gradient too large for Newton-Raphson -- use scaled steepest descent instead.
 Gradient too large for Newton-Raphson -- use scaled steepest descent instead.
 Gradient too large for Newton-Raphson -- use scaled steepest descent instead.
 Gradient too large for Newton-Raphson -- use scaled steepest descent instead.
     Accept linear search using points  1 and  2.
 Gradient too large for Newton-Raphson -- use scaled steepest descent instead.
 Gradient too large for Newton-Raphson -- use scaled steepest descent instead.
 Gradient too large for Newton-Raphson -- use scaled steepest descent instead.
     Minimum is close to point  5 DX=  5.94D-03 DF= -2.28D-08 DXR=  2.88D-02 DFR=  8.32D-04 which will be used.
 Gradient too large for Newton-Raphson -- use scaled steepest descent instead.
     Accept linear search using points  1 and  2.
 Gradient too large for Newton-Raphson -- use scaled steepest descent instead.
 Gradient too large for Newton-Raphson -- use scaled steepest descent instead.
 Gradient too large for Newton-Raphson -- use scaled steepest descent instead.
     Minimum is close to point  3 DX= -1.13D-02 DF= -1.96D-08 DXR=  5.98D-02 DFR=  3.59D-03 which will be used.
 Gradient too large for Newton-Raphson -- use scaled steepest descent instead.
     Accept linear search using points  1 and  2.
 Gradient too large for Newton-Raphson -- use scaled steepest descent instead.
     Accept linear search using points  5 and  6.
 Gradient too large for Newton-Raphson -- use scaled steepest descent instead.
 Gradient too large for Newton-Raphson -- use scaled steepest descent instead.
 Gradient too large for Newton-Raphson -- use scaled steepest descent instead.
     Accept linear search using points  1 and  2.
 LinEq1:  Iter=  0 NonCon=     1 RMS=4.57D-05 Max=9.91D-04 NDo=     1
 AX will form     1 AO Fock derivatives at one time.
 LinEq1:  Iter=  1 NonCon=     1 RMS=7.46D-06 Max=1.60D-04 NDo=     1
 LinEq1:  Iter=  2 NonCon=     1 RMS=3.46D-06 Max=6.91D-05 NDo=     1
 LinEq1:  Iter=  3 NonCon=     1 RMS=1.34D-06 Max=3.60D-05 NDo=     1
 LinEq1:  Iter=  4 NonCon=     1 RMS=4.49D-07 Max=7.34D-06 NDo=     1
 LinEq1:  Iter=  5 NonCon=     1 RMS=1.52D-07 Max=2.44D-06 NDo=     1
 LinEq1:  Iter=  6 NonCon=     1 RMS=6.78D-08 Max=1.47D-06 NDo=     1
 LinEq1:  Iter=  7 NonCon=     1 RMS=2.08D-08 Max=3.83D-07 NDo=     1
 LinEq1:  Iter=  8 NonCon=     0 RMS=5.62D-09 Max=6.43D-08 NDo=     1
 Linear equations converged to 9.269D-09 9.269D-08 after     8 iterations.
     Accept linear search using points  1 and  2.
     Minimum is close to point  2 DX= -1.46D-05 DF=  0.00D+00 DXR=  1.46D-05 DFR=  0.00D+00 which will be used.
 LinEq1:  Iter=  0 NonCon=     1 RMS=3.47D-08 Max=8.61D-07 NDo=     1
 LinEq1:  Iter=  1 NonCon=     1 RMS=1.53D-08 Max=3.22D-07 NDo=     1
 LinEq1:  Iter=  2 NonCon=     1 RMS=5.45D-09 Max=1.21D-07 NDo=     1
 LinEq1:  Iter=  3 NonCon=     1 RMS=2.13D-09 Max=4.15D-08 NDo=     1
 LinEq1:  Iter=  4 NonCon=     1 RMS=1.01D-09 Max=1.45D-08 NDo=     1
 LinEq1:  Iter=  5 NonCon=     1 RMS=2.95D-10 Max=5.56D-09 NDo=     1
 LinEq1:  Iter=  6 NonCon=     1 RMS=1.41D-10 Max=3.31D-09 NDo=     1
 LinEq1:  Iter=  7 NonCon=     1 RMS=6.12D-11 Max=8.54D-10 NDo=     1
 LinEq1:  Iter=  8 NonCon=     0 RMS=2.23D-11 Max=4.41D-10 NDo=     1
 Linear equations converged to 5.971D-11 5.971D-10 after     8 iterations.
 SCF Done:  E(RHF) =  -738.361995318     a.u. after   20 cycles
            Convg  =    0.4455D-08                    80 Fock formations.
              S**2 =  0.0000                  -V/T =  2.0006
 ExpMin= 4.83D-02 ExpMax= 1.06D+05 ExpMxC= 3.62D+03 IAcc=3 IRadAn=         5 AccDes= 0.00D+00
 HarFok:  IExCor=  205 AccDes= 0.00D+00 IRadAn=         5 IDoV=-2 UseB2=F ITyADJ=14
 ICtDFT= 12500011 ScaDFX=  1.000000  1.000000  1.000000  1.000000
 Range of M.O.s used for correlation:    10   203
 NBasis=   203 NAE=    24 NBE=    24 NFC=     9 NFV=     0
 NROrb=    194 NOA=    15 NOB=    15 NVA=   179 NVB=   179

 **** Warning!!: The largest alpha MO coefficient is  0.21500680D+02

 Orbital symmetries:
       Occupied  (A) (A) (A) (A) (A) (A) (A) (A) (A) (A) (A) (A)
                 (A) (A) (A) (A) (A) (A) (A) (A) (A) (A) (A) (A)
       Virtual   (A) (A) (A) (A) (A) (A) (A) (A) (A) (A) (A) (A)
                 (A) (A) (A) (A) (A) (A) (A) (A) (A) (A) (A) (A)
                 (A) (A) (A) (A) (A) (A) (A) (A) (A) (A) (A) (A)
                 (A) (A) (A) (A) (A) (A) (A) (A) (A) (A) (A) (A)
                 (A) (A) (A) (A) (A) (A) (A) (A) (A) (A) (A) (A)
                 (A) (A) (A) (A) (A) (A) (A) (A) (A) (A) (A) (A)
                 (A) (A) (A) (A) (A) (A) (A) (A) (A) (A) (A) (A)
                 (A) (A) (A) (A) (A) (A) (A) (A) (A) (A) (A) (A)
                 (A) (A) (A) (A) (A) (A) (A) (A) (A) (A) (A) (A)
                 (A) (A) (A) (A) (A) (A) (A) (A) (A) (A) (A) (A)
                 (A) (A) (A) (A) (A) (A) (A) (A) (A) (A) (A) (A)
                 (A) (A) (A) (A) (A) (A) (A) (A) (A) (A) (A) (A)
                 (A) (A) (A) (A) (A) (A) (A) (A) (A) (A) (A) (A)
                 (A) (A) (A) (A) (A) (A) (A) (A) (A) (A) (A) (A)
                 (A) (A) (A) (A) (A) (A) (A) (A) (A) (A) (A)
 Generating guess from densities on rwf.
 Convergence on wavefunction:    0.000001000000000
 Iteration     1 Dimension     3 NMult     0 NNew      3
 CISAX will form     3 AO SS matrices at one time.
 Iteration     2 Dimension     6 NMult     3 NNew      3
 Iteration     3 Dimension     9 NMult     6 NNew      3
 Iteration     4 Dimension    12 NMult     9 NNew      3
 Iteration     5 Dimension    15 NMult    12 NNew      3
 Iteration     6 Dimension    18 NMult    15 NNew      3
 Iteration     7 Dimension    21 NMult    18 NNew      3
 Iteration     8 Dimension    24 NMult    21 NNew      3
 Iteration     9 Dimension    27 NMult    24 NNew      3
 Iteration    10 Dimension    30 NMult    27 NNew      3
 Iteration    11 Dimension    32 NMult    30 NNew      2
 Iteration    12 Dimension    33 NMult    32 NNew      1
 ***********************************************************************
 Excited states from <AA,BB:AA,BB> singles matrix:
 ***********************************************************************
 
 Ground to excited state transition densities written to RWF  633
 Ground to excited state transition electric dipole moments (Au):
       state          X           Y           Z        Dip. S.      Osc.
         1        -0.0000     -0.0421     -0.0000      0.0018      0.0002
         2         0.0000      0.0057     -0.0000      0.0000      0.0000
         3         0.1425     -0.0000      0.0122      0.0205      0.0026
 Ground to excited state transition velocity dipole moments (Au):
       state          X           Y           Z        Dip. S.      Osc.
         1         0.0000     -0.0485     -0.0000      0.0024      0.0107
         2         0.0000     -0.0747     -0.0000      0.0056      0.0235
         3         0.0187      0.0000     -0.0604      0.0040      0.0142
 Ground to excited state transition magnetic dipole moments (Au):
       state          X           Y           Z
         1        -0.3992      0.0003      0.0337
         2         0.6169      0.0002     -0.5396
         3        -0.0000      0.9145      0.0003
 Ground to excited state transition velocity quadrupole moments (Au):
       state          XX          YY          ZZ          XY          XZ          YZ
         1        -0.0000     -0.0000     -0.0000      0.0607      0.0000      0.0043
         2        -0.0000      0.0000     -0.0000      0.1819      0.0001     -0.0113
         3        -0.2146     -0.0080      0.0216     -0.0001      0.1662     -0.0000
 <0|del|b> * <b|rxdel|0> + <0|del|b> * <b|delr+rdel|0>
 Rotatory Strengths (R) in cgs (10**-40 erg-esu-cm/Gauss)
       state          XX          YY          ZZ    R(velocity)    E-M Angle
         1        -0.0378     -0.0015     -0.0423     -0.0272       90.00
         2         0.0082      0.0751     -0.0415      0.0139       90.00
         3         0.0212     -0.0483      0.0708      0.0146       90.00
 1/2[<0|r|b>*<b|rxdel|0> + (<0|rxdel|b>*<b|r|0>)*]
 Rotatory Strengths (R) in cgs (10**-40 erg-esu-cm/Gauss)
       state          XX          YY          ZZ     R(length)
         1        -0.0104      0.0091      0.0005     -0.0002
         2        -0.0037     -0.0009     -0.0098     -0.0048
         3         0.0018      0.0093     -0.0028      0.0027
  1/2[<0|del|b>*<b|r|0> + (<0|r|b>*<b|del|0>)*] (Au)
       state          X           Y           Z        Dip. S.   Osc.(frdel)
         1        -0.0000      0.0020      0.0000     -0.0020     -0.0014
         2         0.0000     -0.0004      0.0000      0.0004      0.0003
         3         0.0027     -0.0000     -0.0007     -0.0019     -0.0013

 Excitation energies and oscillator strengths:
 
 Excited State   1:      Singlet-A      3.9936 eV  310.46 nm  f=0.0002  <S**2>=0.000
      22 -> 26         0.28089
      22 -> 30        -0.10420
      23 -> 25         0.50156
      23 -> 26        -0.33606
      23 -> 27         0.10140
 This state for optimization and/or second-order correction.
 Total Energy, E(CIS/TDA) =  -738.215233447    
 Copying the excited state density for this state as the 1-particle RhoCI density.
 
 Excited State   2:      Singlet-A      4.3127 eV  287.49 nm  f=0.0000  <S**2>=0.000
      22 -> 25         0.53281
      22 -> 30        -0.10299
      23 -> 25         0.22917
      23 -> 26         0.29071
      23 -> 30        -0.14963
      24 -> 25        -0.13965
 
 Excited State   3:      Singlet-A      5.0960 eV  243.30 nm  f=0.0026  <S**2>=0.000
      20 -> 25         0.12524
      20 -> 26         0.13300
      21 -> 25         0.63511
      21 -> 26         0.12487
      21 -> 30        -0.14711
 SavETr:  write IOETrn=   770 NScale= 10 NData=  16 NLR=1 NState=    3 LETran=      64.
          IDoAtm=11111
          Differentiating once with respect to electric field.
                with respect to dipole field.
          Differentiating once with respect to nuclear coordinates.
 Keep R1 ints in memory in canonical form, NReq=220788045.
          There are     1 degrees of freedom in the 1st order CPHF.  IDoFFX=0 NUNeed=     1.
 LinEq1:  Iter=  0 NonCon=     1 RMS=6.56D-03 Max=1.19D-01 NDo=     1
 AX will form     1 AO Fock derivatives at one time.
 LinEq1:  Iter=  1 NonCon=     1 RMS=2.92D-03 Max=4.61D-02 NDo=     1
 LinEq1:  Iter=  2 NonCon=     1 RMS=6.59D-04 Max=1.73D-02 NDo=     1
 LinEq1:  Iter=  3 NonCon=     1 RMS=2.54D-04 Max=3.25D-03 NDo=     1
 LinEq1:  Iter=  4 NonCon=     1 RMS=8.63D-05 Max=1.87D-03 NDo=     1
 LinEq1:  Iter=  5 NonCon=     1 RMS=3.33D-05 Max=8.94D-04 NDo=     1
 LinEq1:  Iter=  6 NonCon=     1 RMS=9.79D-06 Max=1.48D-04 NDo=     1
 LinEq1:  Iter=  7 NonCon=     1 RMS=2.03D-06 Max=3.54D-05 NDo=     1
 LinEq1:  Iter=  8 NonCon=     1 RMS=4.49D-07 Max=1.21D-05 NDo=     1
 LinEq1:  Iter=  9 NonCon=     1 RMS=1.63D-07 Max=5.10D-06 NDo=     1
 LinEq1:  Iter= 10 NonCon=     1 RMS=8.35D-08 Max=1.92D-06 NDo=     1
 LinEq1:  Iter= 11 NonCon=     1 RMS=3.77D-08 Max=5.35D-07 NDo=     1
 LinEq1:  Iter= 12 NonCon=     1 RMS=1.08D-08 Max=1.50D-07 NDo=     1
 LinEq1:  Iter= 13 NonCon=     1 RMS=2.66D-09 Max=4.72D-08 NDo=     1
 LinEq1:  Iter= 14 NonCon=     1 RMS=6.04D-10 Max=1.30D-08 NDo=     1
 LinEq1:  Iter= 15 NonCon=     1 RMS=1.49D-10 Max=2.53D-09 NDo=     1
 LinEq1:  Iter= 16 NonCon=     0 RMS=4.58D-11 Max=8.90D-10 NDo=     1
 Linear equations converged to 1.000D-10 1.000D-09 after    16 iterations.
 End of Minotr F.D. properties file   721 does not exist.
 End of Minotr F.D. properties file   722 does not exist.
 End of Minotr F.D. properties file   788 does not exist.
 Calling FoFJK, ICntrl=  10005127 FMM=F ISym2X=0 I1Cent= 0 IOpClX= 0 NMat=1 NMatS=1 NMatT=0.
 ***** Axes restored to original set *****
 -------------------------------------------------------------------
 Center     Atomic                   Forces (Hartrees/Bohr)
 Number     Number              X              Y              Z
 -------------------------------------------------------------------
      1        7           0.002060822   -0.000079752    0.000623259
      2        8          -0.000722465    0.000133597   -0.000218325
      3        8          -0.000745749   -0.000099997   -0.000190499
      4        8           0.000862744    0.000045973    0.000571866
      5       17          -0.001455352    0.000000179   -0.000786301
 -------------------------------------------------------------------
 Cartesian Forces:  Max     0.002060822 RMS     0.000801727

 GradGradGradGradGradGradGradGradGradGradGradGradGradGradGradGradGradGrad
 Berny optimization.
 FormGI is forming the generalized inverse of G from B-inverse, IUseBI=4.
 Internal  Forces:  Max     0.001650853 RMS     0.000644352
 Search for a saddle point.
 Step number   2 out of a maximum of   21
 All quantities printed in internal units (Hartrees-Bohrs-Radians)
 Swapping is turned off.
 Update second derivatives using D2CorX and points    1    2
 The second derivative matrix:
                          R1        R2        R3        R4        A1
           R1           0.65171
           R2           0.05121   0.65172
           R3           0.00881   0.00882   0.42946
           R4           0.14259   0.14264   0.13917  -0.08618
           A1           0.12529   0.12535   0.01155  -0.18803   0.02747
           A2          -0.03057  -0.07563   0.00004   0.07666  -0.02129
           A3          -0.06023  -0.01118   0.01983   0.04410  -0.04565
           A4           0.04388   0.04387   0.08737  -0.03266  -0.06035
           D1          -0.06390  -0.05868  -0.06407   0.11834   0.08682
           D2           0.05241   0.06155   0.03493  -0.09883  -0.03816
           D3          -0.05725  -0.05673  -0.03492   0.09888   0.03819
                          A2        A3        A4        D1        D2
           A2           0.12867
           A3          -0.10095   0.17006
           A4           0.02525   0.01657   0.29753
           D1          -0.05126  -0.01677   0.03171  -0.02563
           D2          -0.00247   0.02517  -0.02851   0.03355  -0.01566
           D3          -0.01007  -0.01154   0.02852  -0.03211   0.02858
                          D3
           D3          -0.01809
 ITU=  0  0
     Eigenvalues ---   -0.50028   0.01099   0.07199   0.18751   0.24985
     Eigenvalues ---    0.28187   0.50032   0.60698   0.80176
 Eigenvectors required to have negative eigenvalues:
                          R4        A1        D1        D3        D2
   1                    0.64269   0.41011  -0.37880  -0.26416   0.26235
                          R2        R1        A2        R3        A4
   1                   -0.17788  -0.17499  -0.15781  -0.15460   0.13435
 RFO step:  Lambda0=7.684745986D-06 Lambda=-3.40511862D-06.
 Linear search not attempted -- option 19 set.
 Iteration  1 RMS(Cart)=  0.00140523 RMS(Int)=  0.00000362
 Iteration  2 RMS(Cart)=  0.00000230 RMS(Int)=  0.00000244
 Iteration  3 RMS(Cart)=  0.00000000 RMS(Int)=  0.00000244
 Variable       Old X    -DE/DX   Delta X   Delta X   Delta X     New X
                                 (Linear)    (Quad)   (Total)
    R1        2.31227  -0.00045   0.00000   0.00027   0.00027   2.31254
    R2        2.31224  -0.00044   0.00000   0.00033   0.00033   2.31257
    R3        2.46844   0.00036   0.00000   0.00209   0.00209   2.47053
    R4        3.26133   0.00165   0.00000   0.00049   0.00049   3.26182
    A1        2.03451   0.00070   0.00000  -0.00104  -0.00105   2.03346
    A2        2.08442  -0.00025   0.00000  -0.00021  -0.00021   2.08421
    A3        2.08490  -0.00023   0.00000  -0.00077  -0.00078   2.08412
    A4        1.97023   0.00036   0.00000  -0.00067  -0.00067   1.96955
    D1       -2.72220  -0.00053   0.00000   0.00513   0.00512  -2.71707
    D2       -1.78668   0.00039   0.00000  -0.00232  -0.00232  -1.78900
    D3        1.78634  -0.00038   0.00000   0.00316   0.00316   1.78949
         Item               Value     Threshold  Converged?
 Maximum Force            0.001651     0.000450     NO 
 RMS     Force            0.000644     0.000300     NO 
 Maximum Displacement     0.002929     0.001800     NO 
 RMS     Displacement     0.001405     0.001200     NO 
 Predicted change in Energy= 2.139648D-06
 GradGradGradGradGradGradGradGradGradGradGradGradGradGradGradGradGradGrad

                          Input orientation:                          
 ---------------------------------------------------------------------
 Center     Atomic      Atomic             Coordinates (Angstroms)
 Number     Number       Type             X           Y           Z
 ---------------------------------------------------------------------
      1          7           0        0.870556    0.000024   -0.013418
      2          8           0        1.495373   -1.040665   -0.168726
      3          8           0        1.495502    1.040672   -0.168599
      4          8           0       -0.200644    0.000097    0.736042
      5         17           0       -1.661652   -0.000128   -0.183095
 ---------------------------------------------------------------------
                    Distance matrix (angstroms):
                    1          2          3          4          5
     1  N    0.000000
     2  O    1.223745   0.000000
     3  O    1.223760   2.081338   0.000000
     4  O    1.307348   2.185924   2.185883   0.000000
     5  Cl   2.537886   3.324114   3.324320   1.726082   0.000000
 Stoichiometry    ClNO3
 Framework group  C1[X(ClNO3)]
 Deg. of freedom     9
 Full point group                 C1      NOp   1
 Largest Abelian subgroup         C1      NOp   1
 Largest concise Abelian subgroup C1      NOp   1
                         Standard orientation:                         
 ---------------------------------------------------------------------
 Center     Atomic      Atomic             Coordinates (Angstroms)
 Number     Number       Type             X           Y           Z
 ---------------------------------------------------------------------
      1          7           0        0.867082   -0.000012   -0.011744
      2          8           0        1.492065   -1.040769   -0.165922
      3          8           0        1.492335    1.040568   -0.166147
      4          8           0       -0.205260    0.000261    0.736079
      5         17           0       -1.664864   -0.000023   -0.185286
 ---------------------------------------------------------------------
 Rotational constants (GHZ):          11.1330626           2.6587553           2.3618484
 Standard basis: 6-311++G(3df,3pd) (5D, 7F)
 There are   233 symmetry adapted cartesian basis functions of A   symmetry.
 There are   203 symmetry adapted basis functions of A   symmetry.
   203 basis functions,   307 primitive gaussians,   233 cartesian basis functions
    24 alpha electrons       24 beta electrons
       nuclear repulsion energy       228.1639946182 Hartrees.
 NAtoms=    5 NActive=    5 NUniq=    5 SFac= 1.00D+00 NAtFMM=   60 NAOKFM=F Big=F
 Integral buffers will be    131072 words long.
 Raffenetti 1 integral format.
 Two-electron integral symmetry is turned on.
 One-electron integrals computed using PRISM.
 NBasis=   203 RedAO= T EigKep=  1.94D-04  NBF=   203
 NBsUse=   203 1.00D-06 EigRej= -1.00D+00 NBFU=   203
 Initial guess from the checkpoint file:  "/localscratch/alrebei.28376396.0/Gau-28058.chk"
 B after Tr=     0.000000   -0.000000   -0.000000
         Rot=    1.000000    0.000169    0.000029    0.000010 Ang=   0.02 deg.
 Keep R1 ints in memory in canonical form, NReq=220787261.
 LinEq1:  Iter=  0 NonCon=     1 RMS=2.17D-05 Max=4.66D-04 NDo=     1
 AX will form     1 AO Fock derivatives at one time.
 LinEq1:  Iter=  1 NonCon=     1 RMS=3.90D-06 Max=7.03D-05 NDo=     1
 LinEq1:  Iter=  2 NonCon=     1 RMS=2.01D-06 Max=3.05D-05 NDo=     1
 LinEq1:  Iter=  3 NonCon=     1 RMS=6.52D-07 Max=1.34D-05 NDo=     1
 LinEq1:  Iter=  4 NonCon=     1 RMS=2.72D-07 Max=6.35D-06 NDo=     1
 LinEq1:  Iter=  5 NonCon=     1 RMS=7.60D-08 Max=1.36D-06 NDo=     1
 LinEq1:  Iter=  6 NonCon=     1 RMS=3.96D-08 Max=9.25D-07 NDo=     1
 LinEq1:  Iter=  7 NonCon=     1 RMS=1.76D-08 Max=2.48D-07 NDo=     1
 LinEq1:  Iter=  8 NonCon=     0 RMS=5.48D-09 Max=7.25D-08 NDo=     1
 Linear equations converged to 9.269D-09 9.269D-08 after     8 iterations.
     Accept linear search using points  2 and  3.
     Minimum is close to point  2 DX=  4.27D-05 DF=  0.00D+00 DXR=  4.27D-05 DFR=  0.00D+00 which will be used.
 LinEq1:  Iter=  0 NonCon=     1 RMS=1.41D-08 Max=3.19D-07 NDo=     1
 LinEq1:  Iter=  1 NonCon=     1 RMS=7.27D-09 Max=1.57D-07 NDo=     1
 LinEq1:  Iter=  2 NonCon=     1 RMS=3.20D-09 Max=4.96D-08 NDo=     1
 LinEq1:  Iter=  3 NonCon=     1 RMS=1.38D-09 Max=2.80D-08 NDo=     1
 LinEq1:  Iter=  4 NonCon=     1 RMS=5.58D-10 Max=9.71D-09 NDo=     1
 LinEq1:  Iter=  5 NonCon=     1 RMS=2.76D-10 Max=4.83D-09 NDo=     1
 LinEq1:  Iter=  6 NonCon=     1 RMS=9.99D-11 Max=1.95D-09 NDo=     1
 LinEq1:  Iter=  7 NonCon=     1 RMS=3.03D-11 Max=4.98D-10 NDo=     1
 LinEq1:  Iter=  8 NonCon=     1 RMS=1.32D-11 Max=2.81D-10 NDo=     1
 LinEq1:  Iter=  9 NonCon=     0 RMS=6.70D-12 Max=2.14D-10 NDo=     1
 Linear equations converged to 2.411D-11 2.411D-10 after     9 iterations.
 SCF Done:  E(RHF) =  -738.361651601     a.u. after    3 cycles
            Convg  =    0.3253D-08                    21 Fock formations.
              S**2 =  0.0000                  -V/T =  2.0006
 ExpMin= 4.83D-02 ExpMax= 1.06D+05 ExpMxC= 3.62D+03 IAcc=3 IRadAn=         5 AccDes= 0.00D+00
 HarFok:  IExCor=  205 AccDes= 0.00D+00 IRadAn=         5 IDoV=-2 UseB2=F ITyADJ=14
 ICtDFT= 12500011 ScaDFX=  1.000000  1.000000  1.000000  1.000000
 Range of M.O.s used for correlation:    10   203
 NBasis=   203 NAE=    24 NBE=    24 NFC=     9 NFV=     0
 NROrb=    194 NOA=    15 NOB=    15 NVA=   179 NVB=   179

 **** Warning!!: The largest alpha MO coefficient is  0.21329690D+02

 Orbital symmetries:
       Occupied  (A) (A) (A) (A) (A) (A) (A) (A) (A) (A) (A) (A)
                 (A) (A) (A) (A) (A) (A) (A) (A) (A) (A) (A) (A)
       Virtual   (A) (A) (A) (A) (A) (A) (A) (A) (A) (A) (A) (A)
                 (A) (A) (A) (A) (A) (A) (A) (A) (A) (A) (A) (A)
                 (A) (A) (A) (A) (A) (A) (A) (A) (A) (A) (A) (A)
                 (A) (A) (A) (A) (A) (A) (A) (A) (A) (A) (A) (A)
                 (A) (A) (A) (A) (A) (A) (A) (A) (A) (A) (A) (A)
                 (A) (A) (A) (A) (A) (A) (A) (A) (A) (A) (A) (A)
                 (A) (A) (A) (A) (A) (A) (A) (A) (A) (A) (A) (A)
                 (A) (A) (A) (A) (A) (A) (A) (A) (A) (A) (A) (A)
                 (A) (A) (A) (A) (A) (A) (A) (A) (A) (A) (A) (A)
                 (A) (A) (A) (A) (A) (A) (A) (A) (A) (A) (A) (A)
                 (A) (A) (A) (A) (A) (A) (A) (A) (A) (A) (A) (A)
                 (A) (A) (A) (A) (A) (A) (A) (A) (A) (A) (A) (A)
                 (A) (A) (A) (A) (A) (A) (A) (A) (A) (A) (A) (A)
                 (A) (A) (A) (A) (A) (A) (A) (A) (A) (A) (A) (A)
                 (A) (A) (A) (A) (A) (A) (A) (A) (A) (A) (A)
 Generating guess from densities on rwf.
 Convergence on wavefunction:    0.000001000000000
 Iteration     1 Dimension     3 NMult     0 NNew      3
 CISAX will form     3 AO SS matrices at one time.
 Iteration     2 Dimension     6 NMult     3 NNew      3
 Iteration     3 Dimension     9 NMult     6 NNew      3
 Iteration     4 Dimension    12 NMult     9 NNew      3
 Iteration     5 Dimension    15 NMult    12 NNew      3
 Iteration     6 Dimension    18 NMult    15 NNew      3
 Iteration     7 Dimension    21 NMult    18 NNew      3
 Iteration     8 Dimension    24 NMult    21 NNew      3
 Iteration     9 Dimension    27 NMult    24 NNew      3
 Iteration    10 Dimension    30 NMult    27 NNew      3
 Iteration    11 Dimension    31 NMult    30 NNew      1
 Iteration    12 Dimension    32 NMult    31 NNew      1
 Iteration    13 Dimension    33 NMult    32 NNew      1
 ***********************************************************************
 Excited states from <AA,BB:AA,BB> singles matrix:
 ***********************************************************************
 
 Ground to excited state transition densities written to RWF  633
 Ground to excited state transition electric dipole moments (Au):
       state          X           Y           Z        Dip. S.      Osc.
         1         0.0000     -0.0430      0.0000      0.0018      0.0002
         2        -0.0000      0.0051      0.0000      0.0000      0.0000
         3         0.1426      0.0000      0.0123      0.0205      0.0026
 Ground to excited state transition velocity dipole moments (Au):
       state          X           Y           Z        Dip. S.      Osc.
         1        -0.0000     -0.0475      0.0000      0.0023      0.0103
         2        -0.0000     -0.0754      0.0000      0.0057      0.0239
         3         0.0186     -0.0000     -0.0603      0.0040      0.0142
 Ground to excited state transition magnetic dipole moments (Au):
       state          X           Y           Z
         1        -0.4100      0.0000      0.0418
         2         0.6094     -0.0002     -0.5373
         3         0.0001      0.9155     -0.0002
 Ground to excited state transition velocity quadrupole moments (Au):
       state          XX          YY          ZZ          XY          XZ          YZ
         1         0.0000     -0.0000      0.0000      0.0572     -0.0000      0.0047
         2        -0.0000     -0.0000      0.0000      0.1832     -0.0001     -0.0113
         3        -0.2148     -0.0079      0.0217      0.0001      0.1664      0.0000
 <0|del|b> * <b|rxdel|0> + <0|del|b> * <b|delr+rdel|0>
 Rotatory Strengths (R) in cgs (10**-40 erg-esu-cm/Gauss)
       state          XX          YY          ZZ    R(velocity)    E-M Angle
         1         0.0009      0.0068      0.0102      0.0060       90.00
         2         0.0012     -0.0475      0.0397     -0.0022       90.00
         3        -0.0051      0.0374     -0.0352     -0.0010       90.00
 1/2[<0|r|b>*<b|rxdel|0> + (<0|rxdel|b>*<b|r|0>)*]
 Rotatory Strengths (R) in cgs (10**-40 erg-esu-cm/Gauss)
       state          XX          YY          ZZ     R(length)
         1         0.0030      0.0000     -0.0005      0.0009
         2         0.0049      0.0007      0.0076      0.0044
         3        -0.0055     -0.0224      0.0021     -0.0086
  1/2[<0|del|b>*<b|r|0> + (<0|r|b>*<b|del|0>)*] (Au)
       state          X           Y           Z        Dip. S.   Osc.(frdel)
         1        -0.0000      0.0020      0.0000     -0.0020     -0.0014
         2         0.0000     -0.0004      0.0000      0.0004      0.0003
         3         0.0026     -0.0000     -0.0007     -0.0019     -0.0013

 Excitation energies and oscillator strengths:
 
 Excited State   1:      Singlet-A      3.9843 eV  311.18 nm  f=0.0002  <S**2>=0.000
      22 -> 26         0.28144
      22 -> 30        -0.10192
      23 -> 25         0.49733
      23 -> 26        -0.34087
      23 -> 27         0.10085
 This state for optimization and/or second-order correction.
 Total Energy, E(CIS/TDA) =  -738.215231783    
 Copying the excited state density for this state as the 1-particle RhoCI density.
 
 Excited State   2:      Singlet-A      4.3109 eV  287.61 nm  f=0.0000  <S**2>=0.000
      22 -> 25         0.53097
      22 -> 30        -0.10476
      23 -> 25         0.23779
      23 -> 26         0.28671
      23 -> 30        -0.14846
      24 -> 25         0.13964
 
 Excited State   3:      Singlet-A      5.0972 eV  243.24 nm  f=0.0026  <S**2>=0.000
      20 -> 25         0.12442
      20 -> 26         0.13447
      21 -> 25         0.63476
      21 -> 26         0.12603
      21 -> 30        -0.14691
 SavETr:  write IOETrn=   770 NScale= 10 NData=  16 NLR=1 NState=    3 LETran=      64.
          IDoAtm=11111
          Differentiating once with respect to electric field.
                with respect to dipole field.
          Differentiating once with respect to nuclear coordinates.
 Keep R1 ints in memory in canonical form, NReq=220788045.
          There are     1 degrees of freedom in the 1st order CPHF.  IDoFFX=0 NUNeed=     1.
 LinEq1:  Iter=  0 NonCon=     1 RMS=6.65D-03 Max=1.21D-01 NDo=     1
 AX will form     1 AO Fock derivatives at one time.
 LinEq1:  Iter=  1 NonCon=     1 RMS=2.95D-03 Max=4.68D-02 NDo=     1
 LinEq1:  Iter=  2 NonCon=     1 RMS=6.67D-04 Max=1.74D-02 NDo=     1
 LinEq1:  Iter=  3 NonCon=     1 RMS=2.57D-04 Max=3.29D-03 NDo=     1
 LinEq1:  Iter=  4 NonCon=     1 RMS=8.77D-05 Max=1.90D-03 NDo=     1
 LinEq1:  Iter=  5 NonCon=     1 RMS=3.39D-05 Max=9.08D-04 NDo=     1
 LinEq1:  Iter=  6 NonCon=     1 RMS=9.95D-06 Max=1.46D-04 NDo=     1
 LinEq1:  Iter=  7 NonCon=     1 RMS=2.06D-06 Max=3.54D-05 NDo=     1
 LinEq1:  Iter=  8 NonCon=     1 RMS=4.52D-07 Max=1.19D-05 NDo=     1
 LinEq1:  Iter=  9 NonCon=     1 RMS=1.46D-07 Max=4.69D-06 NDo=     1
 LinEq1:  Iter= 10 NonCon=     1 RMS=4.69D-08 Max=8.86D-07 NDo=     1
 LinEq1:  Iter= 11 NonCon=     1 RMS=2.18D-08 Max=5.32D-07 NDo=     1
 LinEq1:  Iter= 12 NonCon=     1 RMS=9.95D-09 Max=1.31D-07 NDo=     1
 LinEq1:  Iter= 13 NonCon=     1 RMS=2.67D-09 Max=4.47D-08 NDo=     1
 LinEq1:  Iter= 14 NonCon=     1 RMS=6.14D-10 Max=1.27D-08 NDo=     1
 LinEq1:  Iter= 15 NonCon=     1 RMS=1.56D-10 Max=2.83D-09 NDo=     1
 LinEq1:  Iter= 16 NonCon=     1 RMS=4.75D-11 Max=1.01D-09 NDo=     1
 LinEq1:  Iter= 17 NonCon=     0 RMS=1.02D-11 Max=1.62D-10 NDo=     1
 Linear equations converged to 1.000D-10 1.000D-09 after    17 iterations.
 End of Minotr F.D. properties file   721 does not exist.
 End of Minotr F.D. properties file   722 does not exist.
 End of Minotr F.D. properties file   788 does not exist.
 Calling FoFJK, ICntrl=  10005127 FMM=F ISym2X=0 I1Cent= 0 IOpClX= 0 NMat=1 NMatS=1 NMatT=0.
 ***** Axes restored to original set *****
 -------------------------------------------------------------------
 Center     Atomic                   Forces (Hartrees/Bohr)
 Number     Number              X              Y              Z
 -------------------------------------------------------------------
      1        7          -0.000652560    0.000019326   -0.000024255
      2        8           0.000298007   -0.000121346   -0.000018042
      3        8           0.000292864    0.000107508   -0.000024184
      4        8          -0.000329400   -0.000007655   -0.000146071
      5       17           0.000391088    0.000002167    0.000212553
 -------------------------------------------------------------------
 Cartesian Forces:  Max     0.000652560 RMS     0.000252534

 GradGradGradGradGradGradGradGradGradGradGradGradGradGradGradGradGradGrad
 Berny optimization.
 FormGI is forming the generalized inverse of G from B-inverse, IUseBI=4.
 Internal  Forces:  Max     0.000443846 RMS     0.000203892
 Search for a saddle point.
 Step number   3 out of a maximum of   21
 All quantities printed in internal units (Hartrees-Bohrs-Radians)
 Swapping is turned off.
 Update second derivatives using D2CorX and points    1    2    3
 The second derivative matrix:
                          R1        R2        R3        R4        A1
           R1           0.64590
           R2           0.04533   0.64580
           R3          -0.00183  -0.00118   0.43248
           R4           0.14895   0.14932   0.15834  -0.09063
           A1           0.13512   0.13503   0.02171  -0.20141   0.01356
           A2          -0.03206  -0.07725  -0.00606   0.07716  -0.01760
           A3          -0.05858  -0.00983   0.01347   0.03916  -0.04516
           A4           0.04880   0.04865   0.09066  -0.03995  -0.06668
           D1          -0.09072  -0.08407  -0.06209   0.16476   0.11439
           D2           0.06510   0.07362   0.03567  -0.12023  -0.05179
           D3          -0.07420  -0.07280  -0.03437   0.12799   0.05586
                          A2        A3        A4        D1        D2
           A2           0.12879
           A3          -0.09912   0.17349
           A4           0.02737   0.01755   0.29482
           D1          -0.06578  -0.03044   0.04144  -0.03350
           D2           0.00415   0.03094  -0.03354   0.04107  -0.02090
           D3          -0.01915  -0.01988   0.03484  -0.03867   0.03404
                          D3
           D3          -0.02321
 ITU=  0  0  0
     Eigenvalues ---   -0.60817   0.01111   0.12628   0.18671   0.25141
     Eigenvalues ---    0.28245   0.50851   0.60699   0.80135
 Eigenvectors required to have negative eigenvalues:
                          R4        A1        D1        D3        D2
   1                   -0.61350  -0.40744   0.40524   0.28365  -0.26926
                          R2        R1        R3        A2        A4
   1                    0.18509   0.18333   0.15705   0.14933  -0.13850
 RFO step:  Lambda0=5.785284838D-07 Lambda=-5.08935830D-07.
 Linear search not attempted -- option 19 set.
 Iteration  1 RMS(Cart)=  0.00039552 RMS(Int)=  0.00000032
 Iteration  2 RMS(Cart)=  0.00000022 RMS(Int)=  0.00000024
 Variable       Old X    -DE/DX   Delta X   Delta X   Delta X     New X
                                 (Linear)    (Quad)   (Total)
    R1        2.31254   0.00026   0.00000   0.00008   0.00008   2.31262
    R2        2.31257   0.00024   0.00000   0.00006   0.00006   2.31263
    R3        2.47053  -0.00001   0.00000  -0.00038  -0.00038   2.47015
    R4        3.26182  -0.00044   0.00000  -0.00010  -0.00010   3.26172
    A1        2.03346  -0.00028   0.00000  -0.00009  -0.00009   2.03336
    A2        2.08421   0.00012   0.00000   0.00033   0.00033   2.08454
    A3        2.08412   0.00012   0.00000   0.00040   0.00040   2.08452
    A4        1.96955  -0.00009   0.00000   0.00010   0.00010   1.96965
    D1       -2.71707   0.00007   0.00000  -0.00164  -0.00164  -2.71872
    D2       -1.78900  -0.00009   0.00000   0.00071   0.00071  -1.78829
    D3        1.78949   0.00008   0.00000  -0.00088  -0.00088   1.78861
         Item               Value     Threshold  Converged?
 Maximum Force            0.000444     0.000450     YES
 RMS     Force            0.000204     0.000300     YES
 Maximum Displacement     0.000993     0.001800     YES
 RMS     Displacement     0.000396     0.001200     YES
 Predicted change in Energy= 3.479412D-08
 Optimization completed.
    -- Stationary point found.
                           ----------------------------
                           !   Optimized Parameters   !
                           ! (Angstroms and Degrees)  !
 --------------------------                            --------------------------
 ! Name  Definition              Value          Derivative Info.                !
 --------------------------------------------------------------------------------
 ! R1    R(1,2)                  1.2237         -DE/DX =    0.0003              !
 ! R2    R(1,3)                  1.2238         -DE/DX =    0.0002              !
 ! R3    R(1,4)                  1.3073         -DE/DX =    0.0                 !
 ! R4    R(4,5)                  1.7261         -DE/DX =   -0.0004              !
 ! A1    A(2,1,3)              116.5086         -DE/DX =   -0.0003              !
 ! A2    A(2,1,4)              119.4165         -DE/DX =    0.0001              !
 ! A3    A(3,1,4)              119.4116         -DE/DX =    0.0001              !
 ! A4    A(1,4,5)              112.8472         -DE/DX =   -0.0001              !
 ! D1    D(2,1,3,4)           -155.6768         -DE/DX =    0.0001              !
 ! D2    D(2,1,4,5)           -102.5023         -DE/DX =   -0.0001              !
 ! D3    D(3,1,4,5)            102.5303         -DE/DX =    0.0001              !
 --------------------------------------------------------------------------------
 GradGradGradGradGradGradGradGradGradGradGradGradGradGradGradGradGradGrad

                          Input orientation:                          
 ---------------------------------------------------------------------
 Center     Atomic      Atomic             Coordinates (Angstroms)
 Number     Number       Type             X           Y           Z
 ---------------------------------------------------------------------
      1          7           0        0.870556    0.000024   -0.013418
      2          8           0        1.495373   -1.040665   -0.168726
      3          8           0        1.495502    1.040672   -0.168599
[...]
 activities (A**4/AMU), depolarization ratios for plane and unpolarized
 incident light, reduced masses (AMU), force constants (mDyne/A),
 and normal coordinates:
                      1                      2                      3
                      A                      A                      A
 Frequencies --  -1619.1375               112.3488               262.1638
 Red. masses --     15.8863                17.5307                20.2899
 Frc consts  --     24.5381                 0.1304                 0.8216
 IR Inten    --    375.3824                 0.0135                 5.2163
  Atom  AN      X      Y      Z        X      Y      Z        X      Y      Z
     1   7     0.64  -0.00   0.41     0.00   0.20  -0.00    -0.24   0.00   0.32
     2   8    -0.28  -0.02  -0.07    -0.47  -0.04  -0.26    -0.36  -0.00  -0.24
     3   8    -0.28   0.02  -0.07     0.47  -0.04   0.26    -0.36   0.00  -0.24
     4   8     0.45   0.00   0.03     0.00   0.55  -0.00    -0.12   0.00   0.45
     5  17    -0.20  -0.00  -0.11    -0.00  -0.29   0.00     0.48  -0.00  -0.11
                      4                      5                      6
                      A                      A                      A
 Frequencies --    490.3745               564.8512               699.3195
 Red. masses --     16.0549                15.7433                16.6243
 Frc consts  --      2.2746                 2.9595                 4.7901
 IR Inten    --      2.3118                18.0930                 3.7479
  Atom  AN      X      Y      Z        X      Y      Z        X      Y      Z
     1   7    -0.02   0.00   0.54     0.00  -0.36   0.00    -0.21  -0.00  -0.44
     2   8     0.34   0.29  -0.28     0.42  -0.15  -0.24     0.06   0.14   0.05
     3   8     0.34  -0.29  -0.28    -0.42  -0.15   0.24     0.06  -0.14   0.05
     4   8    -0.28   0.00   0.21    -0.00   0.60  -0.00     0.41   0.00   0.69
     5  17    -0.17  -0.00  -0.06     0.00   0.01   0.00    -0.15  -0.00  -0.19
                      7                      8                      9
                      A                      A                      A
 Frequencies --    998.8485              1420.7933              1664.4712
 Red. masses --     15.9391                15.1059                14.6244
 Frc consts  --      9.3695                17.9663                23.8716
 IR Inten    --     17.1651                 7.5436                94.0321
  Atom  AN      X      Y      Z        X      Y      Z        X      Y      Z
     1   7    -0.32   0.00   0.10     0.60  -0.00  -0.40     0.00   0.83  -0.00
     2   8    -0.13   0.52   0.10    -0.12   0.34   0.06     0.19  -0.34  -0.04
     3   8    -0.13  -0.52   0.10    -0.12  -0.34   0.06    -0.19  -0.34   0.04
     4   8     0.36  -0.00  -0.38    -0.44   0.00   0.14     0.00  -0.04  -0.00
     5  17     0.08   0.00   0.05     0.07   0.00   0.04    -0.00  -0.00   0.00

 -------------------
 - Thermochemistry -
 -------------------
 Temperature   298.150 Kelvin.  Pressure   1.00000 Atm.
 Atom     1 has atomic number  7 and mass  14.00307
 Atom     2 has atomic number  8 and mass  15.99491
 Atom     3 has atomic number  8 and mass  15.99491
 Atom     4 has atomic number  8 and mass  15.99491
 Atom     5 has atomic number 17 and mass  34.96885
 Molecular mass:    96.95667 amu.
 Principal axes and moments of inertia in atomic units:
                           1         2         3
     Eigenvalues --   162.10645 678.79177 764.12239
           X            1.00000  -0.00000  -0.00177
           Y            0.00000   1.00000  -0.00000
           Z            0.00177   0.00000   1.00000
 This molecule is an asymmetric top.
 Rotational symmetry number  1.
 Rotational temperatures (Kelvin)      0.53430     0.12760     0.11335
 Rotational constants (GHZ):          11.13306     2.65876     2.36185
    1 imaginary frequencies ignored.
 Zero-point vibrational energy      37163.0 (Joules/Mol)
                                    8.88217 (Kcal/Mol)
 Warning -- explicit consideration of   4 degrees of freedom as
           vibrations may cause significant error
 Vibrational temperatures:    161.64   377.20   705.54   812.69  1006.16
          (Kelvin)           1437.12  2044.20  2394.80
 
 Zero-point correction=                           0.014155 (Hartree/Particle)
 Thermal correction to Energy=                    0.018739
 Thermal correction to Enthalpy=                  0.019683
 Thermal correction to Gibbs Free Energy=        -0.014552
 Sum of electronic and zero-point Energies=           -738.201077
 Sum of electronic and thermal Energies=              -738.196493
 Sum of electronic and thermal Enthalpies=            -738.195549
 Sum of electronic and thermal Free Energies=         -738.229784
 
                     E (Thermal)             CV                S
                      KCal/Mol        Cal/Mol-Kelvin    Cal/Mol-Kelvin
 Total                   11.759             13.371             72.055
 Electronic               0.000              0.000              0.000
 Translational            0.889              2.981             39.626
 Rotational               0.889              2.981             25.933
 Vibrational              9.981              7.409              6.495
 Vibration     1          0.607              1.939              3.228
 Vibration     2          0.669              1.742              1.647
 Vibration     3          0.846              1.271              0.683
 Vibration     4          0.921              1.107              0.514
                       Q            Log10(Q)             Ln(Q)
 Total Bot       0.493829D+07          6.693577         15.412530
 Total V=0       0.160050D+14         13.204256         30.403922
 Vib (Bot)       0.126783D-05         -5.896939        -13.578204
 Vib (Bot)    1  0.182208D+01          0.260567          0.599978
 Vib (Bot)    2  0.740087D+00         -0.130717         -0.300987
 Vib (Bot)    3  0.338010D+00         -0.471070         -1.084680
 Vib (Bot)    4  0.273854D+00         -0.562480         -1.295158
 Vib (V=0)       0.410903D+01          0.613740          1.413188
 Vib (V=0)    1  0.238944D+01          0.378295          0.871057
 Vib (V=0)    2  0.139316D+01          0.144000          0.331572
 Vib (V=0)    3  0.110353D+01          0.042785          0.098516
 Vib (V=0)    4  0.107008D+01          0.029418          0.067738
 Electronic      0.100000D+01          0.000000          0.000000
 Translational   0.375250D+08          7.574320         17.440517
 Rotational      0.103800D+06          5.016195         11.550217
 ***** Axes restored to original set *****
 -------------------------------------------------------------------
 Center     Atomic                   Forces (Hartrees/Bohr)
 Number     Number              X              Y              Z
 -------------------------------------------------------------------
      1        7          -0.000652527    0.000019339   -0.000024094
      2        8           0.000298014   -0.000121378   -0.000018031
      3        8           0.000292868    0.000107536   -0.000024183
      4        8          -0.000329436   -0.000007661   -0.000146242
      5       17           0.000391082    0.000002164    0.000212550
 -------------------------------------------------------------------
 Cartesian Forces:  Max     0.000652527 RMS     0.000252539
 -------------------------------------------------------------------
 Center     Atomic                Nonadiabatic Coup. (Bohr^-1)
 Number     Number              X              Y              Z
 -------------------------------------------------------------------
      1        7           0.000038190    0.228466447    0.000003811
      2        8          -0.002932371   -0.081507795   -0.117258097
      3        8           0.002920278   -0.081517662    0.117226636
      4        8          -0.000032529   -0.000710128    0.000014275
      5       17           0.000010755   -0.017197446    0.000006393
 -------------------------------------------------------------------
 Cartesian Nonad. Coup.:  Max     0.228466447 RMS     0.078862961
 FormGI is forming the generalized inverse of G from B-inverse, IUseBI=4.

 GradGradGradGradGradGradGradGradGradGradGradGradGradGradGradGradGradGrad
 Berny optimization.
 Internal  Forces:  Max     0.000443864 RMS     0.000203891
 Search for a saddle point.
 Step number   1 out of a maximum of    2
 All quantities printed in internal units (Hartrees-Bohrs-Radians)
 Swapping is turned off.
 Second derivative matrix not updated -- analytic derivatives used.
 The second derivative matrix:
                          R1        R2        R3        R4        A1
           R1           0.62531
           R2           0.00187   0.62527
           R3          -0.00162  -0.00161   0.43496
           R4           0.23370   0.23368   0.15251  -0.23386
           A1           0.17962   0.17964   0.01976  -0.28608  -0.02604
           A2          -0.05711  -0.10325  -0.00490   0.12614   0.00492
           A3          -0.08463  -0.03549   0.01120   0.08861  -0.02108
           A4           0.06254   0.06253   0.08891  -0.06630  -0.08050
           D1          -0.08110  -0.07675  -0.06311   0.14721   0.10284
           D2           0.06847   0.07601   0.03554  -0.12596  -0.05680
           D3          -0.07219  -0.07232  -0.03556   0.12599   0.05682
                          A2        A3        A4        D1        D2
           A2           0.11728
           A3          -0.11097   0.15422
           A4           0.03566   0.02575   0.28895
           D1          -0.05757  -0.02595   0.03897  -0.03428
           D2           0.00878   0.03204  -0.03420   0.03783  -0.02030
           D3          -0.02096  -0.01907   0.03420  -0.03670   0.03433
                          D3
           D3          -0.02234
 ITU=  0
     Eigenvalues ---   -0.81018   0.01233   0.04684   0.19759   0.24541
     Eigenvalues ---    0.28229   0.50206   0.62953   0.80331
 Eigenvectors required to have negative eigenvalues:
                          R4        A1        D1        R2        D3
   1                   -0.67226  -0.43226   0.28600   0.22348   0.22194
                          R1        D2        A2        A4        R3
   1                    0.22163  -0.22105   0.17779  -0.14032   0.12654
 Angle between quadratic step and forces=  89.48 degrees.
 Linear search not attempted -- option 19 set.
 Iteration  1 RMS(Cart)=  0.00063341 RMS(Int)=  0.00000076
 Iteration  2 RMS(Cart)=  0.00000052 RMS(Int)=  0.00000057
 Variable       Old X    -DE/DX   Delta X   Delta X   Delta X     New X
                                 (Linear)    (Quad)   (Total)
    R1        2.31254   0.00026   0.00000   0.00012   0.00012   2.31267
    R2        2.31257   0.00024   0.00000   0.00010   0.00010   2.31267
    R3        2.47053  -0.00001   0.00000  -0.00049  -0.00049   2.47004
    R4        3.26182  -0.00044   0.00000  -0.00038  -0.00038   3.26144
    A1        2.03346  -0.00028   0.00000  -0.00020  -0.00020   2.03326
    A2        2.08421   0.00012   0.00000   0.00054   0.00054   2.08475
    A3        2.08412   0.00012   0.00000   0.00063   0.00063   2.08476
    A4        1.96955  -0.00009   0.00000   0.00014   0.00014   1.96970
    D1       -2.71707   0.00007   0.00000  -0.00254  -0.00254  -2.71962
    D2       -1.78900  -0.00009   0.00000   0.00091   0.00091  -1.78809
    D3        1.78949   0.00008   0.00000  -0.00152  -0.00152   1.78797
         Item               Value     Threshold  Converged?
 Maximum Force            0.000444     0.000450     YES
 RMS     Force            0.000204     0.000300     YES
 Maximum Displacement     0.001518     0.001800     YES
 RMS     Displacement     0.000633     0.001200     YES
 Predicted change in Energy=-1.005654D-08
 Optimization completed.
    -- Stationary point found.
                           ----------------------------
                           !   Optimized Parameters   !
                           ! (Angstroms and Degrees)  !
 --------------------------                            --------------------------
 ! Name  Definition              Value          Derivative Info.                !
 --------------------------------------------------------------------------------
 ! R1    R(1,2)                  1.2237         -DE/DX =    0.0003              !
 ! R2    R(1,3)                  1.2238         -DE/DX =    0.0002              !
 ! R3    R(1,4)                  1.3073         -DE/DX =    0.0                 !
 ! R4    R(4,5)                  1.7261         -DE/DX =   -0.0004              !
 ! A1    A(2,1,3)              116.5086         -DE/DX =   -0.0003              !
 ! A2    A(2,1,4)              119.4165         -DE/DX =    0.0001              !
 ! A3    A(3,1,4)              119.4116         -DE/DX =    0.0001              !
 ! A4    A(1,4,5)              112.8472         -DE/DX =   -0.0001              !
 ! D1    D(2,1,3,4)           -155.6768         -DE/DX =    0.0001              !
 ! D2    D(2,1,4,5)           -102.5023         -DE/DX =   -0.0001              !
 ! D3    D(3,1,4,5)            102.5303         -DE/DX =    0.0001              !
 --------------------------------------------------------------------------------
 GradGradGradGradGradGradGradGradGradGradGradGradGradGradGradGradGradGrad

 -------------------------------------------------------------------
 Center     Atomic                Nonadiabatic Coup. (Bohr^-1)
 Number     Number              X              Y              Z
 -------------------------------------------------------------------
      1        7           0.000038190    0.228466447    0.000003811
      2        8          -0.002932371   -0.081507795   -0.117258097
      3        8           0.002920278   -0.081517662    0.117226636
      4        8          -0.000032529   -0.000710128    0.000014275
      5       17           0.000010755   -0.017197446    0.000006393
 -------------------------------------------------------------------
 Cartesian Nonad. Coup.:  Max     0.228466447 RMS     0.078862961

 ----------------------------------------------------------------------

 Electric dipole moment (input orientation):
 (Debye = 10**-18 statcoulomb cm , SI units = C m)
                  (au)            (Debye)         (10**-30 SI)
   Tot        0.794300D+00      0.201891D+01      0.673436D+01
   x         -0.794190D+00     -0.201863D+01     -0.673342D+01
   y          0.000000D+00      0.000000D+00      0.000000D+00
   z         -0.132770D-01     -0.337468D-01     -0.112567D+00

 Dipole polarizability, Alpha (input orientation).
 (esu units = cm**3 , SI units = C**2 m**2 J**-1)
 Alpha(0;0):
               (au)            (10**-24 esu)      (10**-40 SI)
   iso        0.491372D+02      0.728138D+01      0.810163D+01
   aniso      0.331295D+02      0.490929D+01      0.546232D+01
   xx         0.623941D+02      0.924585D+01      0.102874D+02
   yx         0.472520D-02      0.700203D-03      0.779081D-03
   yy         0.577228D+02      0.855364D+01      0.951721D+01
   zx         0.160472D+01      0.237795D+00      0.264583D+00
   zy         0.223584D-02      0.331317D-03      0.368640D-03
   zz         0.272946D+02      0.404464D+01      0.450027D+01

 ----------------------------------------------------------------------

 Dipole orientation:
     7         -0.05285089          0.00002484         -1.64445786
     8         -0.36601272         -1.96661078         -2.82009742
     8         -0.36582402          1.96654737         -2.82039308
     8          1.39706076          0.00020530          0.35585933
    17         -0.29346395         -0.00020830          3.14541209

 Electric dipole moment (dipole orientation):
 (Debye = 10**-18 statcoulomb cm , SI units = C m)
                  (au)            (Debye)         (10**-30 SI)
   Tot        0.794300D+00      0.201891D+01      0.673436D+01
   x          0.000000D+00      0.000000D+00      0.000000D+00
   y          0.000000D+00      0.000000D+00      0.000000D+00
   z          0.794300D+00      0.201891D+01      0.673436D+01

 Dipole polarizability, Alpha (dipole orientation).
 (esu units = cm**3 , SI units = C**2 m**2 J**-1)
 Alpha(0;0):
               (au)            (10**-24 esu)      (10**-40 SI)
   iso        0.491372D+02      0.728138D+01      0.810163D+01
   aniso      0.331295D+02      0.490929D+01      0.546232D+01
   xx         0.272507D+02      0.403814D+01      0.449304D+01
   yx         0.177192D-02      0.262571D-03      0.292150D-03
   yy         0.577228D+02      0.855364D+01      0.951721D+01
   zx        -0.101720D+01     -0.150734D+00     -0.167714D+00
   zy        -0.471768D-02     -0.699088D-03     -0.777840D-03
   zz         0.624379D+02      0.925235D+01      0.102946D+02

 ----------------------------------------------------------------------
 1\1\GINC-GRA583\Freq\RCIS-FC\6-311++G(3df,3pd)\Cl1N1O3\ALREBEI\24-Feb-
 2020\0\\#N Geom=AllCheck Guess=TCheck SCRF=Check GenChk RCIS(FC,Read)/
 6-311++G(3df,3pd) Freq\\Title Card Required\\0,1\N,0.8705555345,0.0000
 239433,-0.0134177069\O,1.4953730341,-1.0406653049,-0.1687261708\O,1.49
 55023626,1.0406723572,-0.1685986981\O,-0.2006438883,0.0000973406,0.736
 0417149\Cl,-1.6616520429,-0.0001283362,-0.1830951391\\Version=ES64L-G1
 6RevA.03\State=1-A\HF=-738.3616516\RMSD=3.509e-11\RMSF=2.525e-04\ZeroP
 oint=0.0141546\Thermal=0.018739\Dipole=-0.7941895,-0.0000095,-0.013277
 \DipoleDeriv=-1.0738282,-0.000068,0.1859594,0.0000454,0.7503796,-0.000
 0262,-0.8685891,0.0001301,0.5273869,0.604199,0.4340721,-0.190988,-0.16
 49813,-0.5789598,0.037241,0.0881573,-0.1869319,-0.1969037,0.6041352,-0
 .4340888,-0.1910447,0.164848,-0.5788375,-0.0372455,0.08819,0.186886,-0
 .1968728,-1.4552888,-0.0000745,0.4021852,-0.000073,0.2953005,0.00006,0
 .1008182,-0.0001244,-0.0799634,1.3207828,0.0001591,-0.2061119,0.000160
 9,0.1121172,-0.0000293,0.5914236,0.0000402,-0.053647\Polar=62.3941159,
 0.0047252,57.7228322,1.6047215,0.0022358,27.2945678\PG=C01 [X(Cl1N1O3)
 ]\NImag=1\\-0.08205073,0.00007595,0.98657598,-0.55560704,0.00010431,0.
 02869891,0.18592207,0.22325412,0.22283423,0.02758069,0.14934929,-0.449
 73825,-0.10756519,-0.21749948,0.55410919,0.08734117,-0.03699461,-0.004
 01148,-0.09139261,0.07503474,0.02909134,0.18587201,-0.22332406,0.22281
 471,-0.17307972,0.04407368,-0.02744799,0.02764424,-0.14943616,-0.44965
 751,0.10747579,-0.04405001,-0.10938685,-0.01200694,0.21756007,0.554032
 57,0.08732619,0.03693639,-0.00398322,-0.02745436,0.01199902,0.00056483
 ,-0.09138094,-0.07496253,0.02906960,-0.77829586,0.00003379,-0.10797632
 ,0.23511016,-0.05934058,0.05988444,0.23509508,0.05929340,0.05991280,0.
 06743947,-0.00005499,-0.08428186,-0.00003924,0.03530064,0.00471210,-0.
 02651848,-0.03525023,0.00472774,0.02651712,-0.00000597,0.07554253,0.09
 003578,-0.00003096,-0.16028117,0.03865177,-0.02332761,-0.01058974,0.03
 865119,0.02332677,-0.01058650,-0.11509769,0.00004421,0.26248910,0.4885
 5251,-0.00003980,0.21793443,-0.27553320,0.08341709,-0.02838501,-0.2755
 3161,-0.08336730,-0.02840368,0.24065115,0.00001055,-0.05224106,-0.1781
 3885,0.00006592,-0.00289836,0.00002433,0.00299473,0.00030381,0.0004852
 8,-0.00305947,0.00028404,-0.00048999,0.00001936,-0.00070052,-0.0000124
 0,-0.00002054,0.00301102,0.29090389,-0.00001512,0.13957696,-0.14263902
 ,0.04385904,-0.01505494,-0.14263696,-0.04383309,-0.01506471,0.10327677
 ,-0.00000362,-0.08103169,-0.10890468,-0.00000721,-0.02842562\\0.000652
 53,-0.00001934,0.00002409,-0.00029801,0.00012138,0.00001803,-0.0002928
 7,-0.00010754,0.00002418,0.00032944,0.00000766,0.00014624,-0.00039108,
 -0.00000216,-0.00021255\\\@


 THE MORE POWERFUL THE METHOD, THE MORE CATASTROPHIC THE ERRORS.
     -- M.D. KAMEN
 Job cpu time:       0 days  0 hours 13 minutes  0.6 seconds.
 Elapsed time:       0 days  0 hours  6 minutes 36.5 seconds.
 File lengths (MBytes):  RWF=    161 Int=      0 D2E=      0 Chk=      8 Scr=      1
 Normal termination of Gaussian 16 at Mon Feb 24 02:28:30 2020.
