 Entering Gaussian System, Link 0=g16
 Initial command:
 /opt/software/gaussian/g16.a03/l1.exe "/localscratch/alrebei.28376401.0/Gau-14107.inp" -scrdir="/localscratch/alrebei.28376401.0/"
 Entering Link 1 = /opt/software/gaussian/g16.a03/l1.exe PID=     14109.
  
 Copyright (c) 1988,1990,1992,1993,1995,1998,2003,2009,2016,
            Gaussian, Inc.  All Rights Reserved.
  
 This is part of the Gaussian(R) 16 program.  It is based on
 the Gaussian(R) 09 system (copyright 2009, Gaussian, Inc.),
 the Gaussian(R) 03 system (copyright 2003, Gaussian, Inc.),
 the Gaussian(R) 98 system (copyright 1998, Gaussian, Inc.),
 the Gaussian(R) 94 system (copyright 1995, Gaussian, Inc.),
 the Gaussian 92(TM) system (copyright 1992, Gaussian, Inc.),
 the Gaussian 90(TM) system (copyright 1990, Gaussian, Inc.),
 the Gaussian 88(TM) system (copyright 1988, Gaussian, Inc.),
 the Gaussian 86(TM) system (copyright 1986, Carnegie Mellon
 University), and the Gaussian 82(TM) system (copyright 1983,
 Carnegie Mellon University). Gaussian is a federally registered
 trademark of Gaussian, Inc.
  
 This software contains proprietary and confidential information,
 including trade secrets, belonging to Gaussian, Inc.
  
 This software is provided under written license and may be
 used, copied, transmitted, or stored only in accord with that
 written license.
  
 The following legend is applicable only to US Government
 contracts under FAR:
  
                    RESTRICTED RIGHTS LEGEND
  
 Use, reproduction and disclosure by the US Government is
 subject to restrictions as set forth in subparagraphs (a)
 and (c) of the Commercial Computer Software - Restricted
 Rights clause in FAR 52.227-19.
  
 Gaussian, Inc.
 340 Quinnipiac St., Bldg. 40, Wallingford CT 06492
  
  
 ---------------------------------------------------------------
 Warning -- This program may not be used in any manner that
 competes with the business of Gaussian, Inc. or will provide
 assistance to any competitor of Gaussian, Inc.  The licensee
 of this program is prohibited from giving any competitor of
 Gaussian, Inc. access to this program.  By using this program,
 the user acknowledges that Gaussian, Inc. is engaged in the
 business of creating and licensing software in the field of
 computational chemistry and represents and warrants to the
 licensee that it is not a competitor of Gaussian, Inc. and that
 it will not use this program in any manner prohibited above.
 ---------------------------------------------------------------
  

 Cite this work as:
 Gaussian 16, Revision A.03,
 M. J. Frisch, G. W. Trucks, H. B. Schlegel, G. E. Scuseria, 
 M. A. Robb, J. R. Cheeseman, G. Scalmani, V. Barone, 
 G. A. Petersson, H. Nakatsuji, X. Li, M. Caricato, A. V. Marenich, 
 J. Bloino, B. G. Janesko, R. Gomperts, B. Mennucci, H. P. Hratchian, 
 J. V. Ortiz, A. F. Izmaylov, J. L. Sonnenberg, D. Williams-Young, 
 F. Ding, F. Lipparini, F. Egidi, J. Goings, B. Peng, A. Petrone, 
 T. Henderson, D. Ranasinghe, V. G. Zakrzewski, J. Gao, N. Rega, 
 G. Zheng, W. Liang, M. Hada, M. Ehara, K. Toyota, R. Fukuda, 
 J. Hasegawa, M. Ishida, T. Nakajima, Y. Honda, O. Kitao, H. Nakai, 
 T. Vreven, K. Throssell, J. A. Montgomery, Jr., J. E. Peralta, 
 F. Ogliaro, M. J. Bearpark, J. J. Heyd, E. N. Brothers, K. N. Kudin, 
 V. N. Staroverov, T. A. Keith, R. Kobayashi, J. Normand, 
 K. Raghavachari, A. P. Rendell, J. C. Burant, S. S. Iyengar, 
 J. Tomasi, M. Cossi, J. M. Millam, M. Klene, C. Adamo, R. Cammi, 
 J. W. Ochterski, R. L. Martin, K. Morokuma, O. Farkas, 
 J. B. Foresman, and D. J. Fox, Gaussian, Inc., Wallingford CT, 2016.
 
 ******************************************
 Gaussian 16:  ES64L-G16RevA.03 25-Dec-2016
                24-Feb-2020 
 ******************************************
 %nprocshared=2
 Will use up to    2 processors via shared memory.
 %mem=2GB
 ---------------------------------------
 # opt freq cis/6-311++g(3df,3pd) scf=qc
 ---------------------------------------
 1/18=20,19=15,38=1/1,3;
 2/9=110,12=2,17=6,18=5,40=1/2;
 3/5=4,6=6,7=1616,11=9,25=1,30=1,71=1/1,2,3,8;
 4//1;
 5/5=2,8=3,38=5/8;
 8/6=1,10=2/1;
 9/15=2,42=1/14;
 10/5=4/2;
 6/7=2,8=2,9=2,10=2/1;
 7/12=6,13=5/1,2,3,16;
 1/18=20,19=15/3(2);
 2/9=110/2;
 99//99;
 2/9=110/2;
 3/5=4,6=6,7=1616,11=9,25=1,30=1,71=1/1,2,3,8;
 4/5=5,16=3,69=1/1;
 5/5=2,8=3,38=5/8;
 8/6=1,10=2/1;
 9/15=2,42=1,49=4/14;
 10/5=4/2;
 7/12=6,13=5/1,2,3,16;
 1/18=20,19=15/3(-8);
 2/9=110/2;
 6/7=2,8=2,9=2,10=2/1;
 99//99;
 -------------------
 Title Card Required
 -------------------
 Symbolic Z-matrix:
 Charge =  0 Multiplicity = 1
 N                     1.027     0.00004   0.05144 
 O                     1.43045  -1.05985  -0.2585 
 O                     1.42969   1.06042  -0.25786 
 O                    -0.01583  -0.00062   0.87218 
 Cl                   -1.76138   0.00001  -0.18863 
 
 Add virtual bond connecting atoms Cl5        and O4         Dist= 3.86D+00.

 GradGradGradGradGradGradGradGradGradGradGradGradGradGradGradGradGradGrad
 Berny optimization.
 Initialization pass.
                           ----------------------------
                           !    Initial Parameters    !
                           ! (Angstroms and Degrees)  !
 --------------------------                            --------------------------
 ! Name  Definition              Value          Derivative Info.                !
 --------------------------------------------------------------------------------
 ! R1    R(1,2)                  1.1757         estimate D2E/DX2                !
 ! R2    R(1,3)                  1.1757         estimate D2E/DX2                !
 ! R3    R(1,4)                  1.3271         estimate D2E/DX2                !
 ! R4    R(4,5)                  2.0426         estimate D2E/DX2                !
 ! A1    A(2,1,3)              128.7706         estimate D2E/DX2                !
 ! A2    A(2,1,4)              115.6115         estimate D2E/DX2                !
 ! A3    A(3,1,4)              115.6141         estimate D2E/DX2                !
 ! A4    A(1,4,5)              110.5083         estimate D2E/DX2                !
 ! D1    D(2,1,3,4)           -179.2525         estimate D2E/DX2                !
 ! D2    D(2,1,4,5)            -90.3516         estimate D2E/DX2                !
 ! D3    D(3,1,4,5)             90.2947         estimate D2E/DX2                !
 --------------------------------------------------------------------------------
 Trust Radius=3.00D-01 FncErr=1.00D-07 GrdErr=1.00D-07 EigMax=2.50D+02 EigMin=1.00D-04
 Number of steps in this run=     21 maximum allowed number of steps=    100.
 GradGradGradGradGradGradGradGradGradGradGradGradGradGradGradGradGradGrad

                          Input orientation:                          
 ---------------------------------------------------------------------
 Center     Atomic      Atomic             Coordinates (Angstroms)
 Number     Number       Type             X           Y           Z
 ---------------------------------------------------------------------
      1          7           0        1.026996    0.000040    0.051442
      2          8           0        1.430452   -1.059854   -0.258504
      3          8           0        1.429687    1.060415   -0.257857
      4          8           0       -0.015829   -0.000617    0.872178
      5         17           0       -1.761380    0.000010   -0.188625
 ---------------------------------------------------------------------
                    Distance matrix (angstroms):
                    1          2          3          4          5
     1  N    0.000000
     2  O    1.175678   0.000000
     3  O    1.175679   2.120269   0.000000
     4  O    1.327061   2.119470   2.119501   0.000000
     5  Cl   2.798691   3.363924   3.363356   2.042609   0.000000
 Stoichiometry    ClNO3
 Framework group  C1[X(ClNO3)]
 Deg. of freedom     9
 Full point group                 C1      NOp   1
 Largest Abelian subgroup         C1      NOp   1
 Largest concise Abelian subgroup C1      NOp   1
                         Standard orientation:                         
 ---------------------------------------------------------------------
 Center     Atomic      Atomic             Coordinates (Angstroms)
 Number     Number       Type             X           Y           Z
 ---------------------------------------------------------------------
      1          7           0        1.026996    0.000040    0.051442
      2          8           0        1.430452   -1.059854   -0.258504
      3          8           0        1.429687    1.060415   -0.257857
      4          8           0       -0.015829   -0.000617    0.872178
      5         17           0       -1.761380    0.000010   -0.188625
 ---------------------------------------------------------------------
 Rotational constants (GHZ):           9.8069434           2.4744952           2.2500468
 Standard basis: 6-311++G(3df,3pd) (5D, 7F)
 There are   233 symmetry adapted cartesian basis functions of A   symmetry.
 There are   203 symmetry adapted basis functions of A   symmetry.
   203 basis functions,   307 primitive gaussians,   233 cartesian basis functions
    24 alpha electrons       24 beta electrons
       nuclear repulsion energy       221.1990741612 Hartrees.
 NAtoms=    5 NActive=    5 NUniq=    5 SFac= 1.00D+00 NAtFMM=   60 NAOKFM=F Big=F
 Integral buffers will be    131072 words long.
 Raffenetti 1 integral format.
 Two-electron integral symmetry is turned on.
 One-electron integrals computed using PRISM.
 NBasis=   203 RedAO= T EigKep=  1.24D-04  NBF=   203
 NBsUse=   203 1.00D-06 EigRej= -1.00D+00 NBFU=   203
 ExpMin= 4.83D-02 ExpMax= 1.06D+05 ExpMxC= 3.62D+03 IAcc=3 IRadAn=         5 AccDes= 0.00D+00
 Harris functional with IExCor=  205 and IRadAn=       5 diagonalized for initial guess.
 HarFok:  IExCor=  205 AccDes= 0.00D+00 IRadAn=         5 IDoV= 1 UseB2=F ITyADJ=14
 ICtDFT=  3500011 ScaDFX=  1.000000  1.000000  1.000000  1.000000
 FoFCou: FMM=F IPFlag=           0 FMFlag=      100000 FMFlg1=           0
         NFxFlg=           0 DoJE=T BraDBF=F KetDBF=T FulRan=T
         wScrn=  0.000000 ICntrl=       500 IOpCl=  0 I1Cent=   200000004 NGrid=           0
         NMat0=    1 NMatS0=      1 NMatT0=    0 NMatD0=    1 NMtDS0=    0 NMtDT0=    0
 Petite list used in FoFCou.
 Keep R1 ints in memory in canonical form, NReq=220787261.
 Gradient too large for Newton-Raphson -- use scaled steepest descent instead.
 Gradient too large for Newton-Raphson -- use scaled steepest descent instead.
     Minimum is close to point  3 DX=  8.33D-02 DF= -1.84D-04 DXR=  9.43D-02 DFR=  8.94D-03 which will be used.
 Gradient too large for Newton-Raphson -- use scaled steepest descent instead.
     Minimum is close to point  2 DX=  7.20D-02 DF= -2.30D-05 DXR=  9.33D-02 DFR=  8.78D-03 which will be used.
 Gradient too large for Newton-Raphson -- use scaled steepest descent instead.
 Gradient too large for Newton-Raphson -- use scaled steepest descent instead.
     Accept linear search using points  1 and  2.
 LinEq1:  Iter=  0 NonCon=     1 RMS=5.33D-05 Max=1.31D-03 NDo=     1
 AX will form     1 AO Fock derivatives at one time.
 LinEq1:  Iter=  1 NonCon=     1 RMS=2.50D-05 Max=5.82D-04 NDo=     1
 LinEq1:  Iter=  2 NonCon=     1 RMS=7.70D-06 Max=2.46D-04 NDo=     1
 LinEq1:  Iter=  3 NonCon=     1 RMS=3.16D-06 Max=7.45D-05 NDo=     1
 LinEq1:  Iter=  4 NonCon=     1 RMS=1.51D-06 Max=4.39D-05 NDo=     1
 LinEq1:  Iter=  5 NonCon=     1 RMS=4.18D-07 Max=1.09D-05 NDo=     1
 LinEq1:  Iter=  6 NonCon=     1 RMS=1.90D-07 Max=5.09D-06 NDo=     1
 LinEq1:  Iter=  7 NonCon=     1 RMS=4.37D-08 Max=8.34D-07 NDo=     1
 LinEq1:  Iter=  8 NonCon=     1 RMS=9.69D-09 Max=1.29D-07 NDo=     1
 LinEq1:  Iter=  9 NonCon=     0 RMS=3.14D-09 Max=8.50D-08 NDo=     1
 Linear equations converged to 9.269D-09 9.269D-08 after     9 iterations.
     Accept linear search using points  1 and  2.
     Minimum is close to point  2 DX= -5.41D-04 DF= -1.09D-11 DXR=  5.41D-04 DFR=  2.92D-07 which will be used.
 LinEq1:  Iter=  0 NonCon=     1 RMS=1.02D-07 Max=3.18D-06 NDo=     1
 LinEq1:  Iter=  1 NonCon=     1 RMS=5.84D-08 Max=1.65D-06 NDo=     1
 LinEq1:  Iter=  2 NonCon=     1 RMS=1.82D-08 Max=5.14D-07 NDo=     1
 LinEq1:  Iter=  3 NonCon=     1 RMS=8.92D-09 Max=1.98D-07 NDo=     1
 LinEq1:  Iter=  4 NonCon=     1 RMS=4.15D-09 Max=1.03D-07 NDo=     1
 LinEq1:  Iter=  5 NonCon=     1 RMS=1.58D-09 Max=3.30D-08 NDo=     1
 LinEq1:  Iter=  6 NonCon=     1 RMS=4.80D-10 Max=1.29D-08 NDo=     1
 LinEq1:  Iter=  7 NonCon=     1 RMS=1.48D-10 Max=2.84D-09 NDo=     1
 LinEq1:  Iter=  8 NonCon=     0 RMS=4.38D-11 Max=6.24D-10 NDo=     1
 Linear equations converged to 1.180D-10 1.180D-09 after     8 iterations.
 SCF Done:  E(RHF) =  -738.347136157     a.u. after    8 cycles
            Convg  =    0.4162D-07                    34 Fock formations.
              S**2 =  0.0000                  -V/T =  2.0006
 ExpMin= 4.83D-02 ExpMax= 1.06D+05 ExpMxC= 3.62D+03 IAcc=3 IRadAn=         5 AccDes= 0.00D+00
 HarFok:  IExCor=  205 AccDes= 0.00D+00 IRadAn=         5 IDoV=-2 UseB2=F ITyADJ=14
 ICtDFT= 12500011 ScaDFX=  1.000000  1.000000  1.000000  1.000000
 Range of M.O.s used for correlation:    10   203
 NBasis=   203 NAE=    24 NBE=    24 NFC=     9 NFV=     0
 NROrb=    194 NOA=    15 NOB=    15 NVA=   179 NVB=   179

 **** Warning!!: The largest alpha MO coefficient is  0.41395851D+02

 Orbital symmetries:
       Occupied  (A) (A) (A) (A) (A) (A) (A) (A) (A) (A) (A) (A)
                 (A) (A) (A) (A) (A) (A) (A) (A) (A) (A) (A) (A)
       Virtual   (A) (A) (A) (A) (A) (A) (A) (A) (A) (A) (A) (A)
                 (A) (A) (A) (A) (A) (A) (A) (A) (A) (A) (A) (A)
                 (A) (A) (A) (A) (A) (A) (A) (A) (A) (A) (A) (A)
                 (A) (A) (A) (A) (A) (A) (A) (A) (A) (A) (A) (A)
                 (A) (A) (A) (A) (A) (A) (A) (A) (A) (A) (A) (A)
                 (A) (A) (A) (A) (A) (A) (A) (A) (A) (A) (A) (A)
                 (A) (A) (A) (A) (A) (A) (A) (A) (A) (A) (A) (A)
                 (A) (A) (A) (A) (A) (A) (A) (A) (A) (A) (A) (A)
                 (A) (A) (A) (A) (A) (A) (A) (A) (A) (A) (A) (A)
                 (A) (A) (A) (A) (A) (A) (A) (A) (A) (A) (A) (A)
                 (A) (A) (A) (A) (A) (A) (A) (A) (A) (A) (A) (A)
                 (A) (A) (A) (A) (A) (A) (A) (A) (A) (A) (A) (A)
                 (A) (A) (A) (A) (A) (A) (A) (A) (A) (A) (A) (A)
                 (A) (A) (A) (A) (A) (A) (A) (A) (A) (A) (A) (A)
                 (A) (A) (A) (A) (A) (A) (A) (A) (A) (A) (A)
    12 initial guesses have been made.
 Convergence on wavefunction:    0.000001000000000
 Iteration     1 Dimension    12 NMult     0 NNew     12
 CISAX will form    12 AO SS matrices at one time.
 New state      1 was old state      4
 New state      2 was old state      3
 New state      3 was old state      2
 Iteration     2 Dimension    24 NMult    12 NNew     12
 Iteration     3 Dimension    27 NMult    24 NNew      3
 Iteration     4 Dimension    30 NMult    27 NNew      3
 Iteration     5 Dimension    33 NMult    30 NNew      3
 Iteration     6 Dimension    36 NMult    33 NNew      3
 Iteration     7 Dimension    39 NMult    36 NNew      3
 Iteration     8 Dimension    42 NMult    39 NNew      3
 Iteration     9 Dimension    45 NMult    42 NNew      3
 Iteration    10 Dimension    46 NMult    45 NNew      1
 ***********************************************************************
 Excited states from <AA,BB:AA,BB> singles matrix:
 ***********************************************************************
 
 Ground to excited state transition densities written to RWF  633
 Ground to excited state transition electric dipole moments (Au):
       state          X           Y           Z        Dip. S.      Osc.
         1        -0.0000      0.0235     -0.0000      0.0006      0.0000
         2         0.0822     -0.0001      0.0429      0.0086      0.0006
         3         0.0002     -0.0090      0.0001      0.0001      0.0000
 Ground to excited state transition velocity dipole moments (Au):
       state          X           Y           Z        Dip. S.      Osc.
         1         0.0000     -0.0719     -0.0001      0.0052      0.0411
         2         0.0250      0.0000     -0.0473      0.0029      0.0180
         3        -0.0000      0.0006      0.0000      0.0000      0.0000
 Ground to excited state transition magnetic dipole moments (Au):
       state          X           Y           Z
         1         0.2239      0.0003     -0.3367
         2        -0.0002      0.8536      0.0006
         3         0.5751      0.0005     -0.7795
 Ground to excited state transition velocity quadrupole moments (Au):
       state          XX          YY          ZZ          XY          XZ          YZ
         1        -0.0000      0.0001     -0.0001      0.1525      0.0001     -0.0325
         2        -0.1835     -0.0111     -0.0043     -0.0001      0.1372      0.0000
         3        -0.0000     -0.0001      0.0001      0.0254      0.0001      0.0365
 <0|del|b> * <b|rxdel|0> + <0|del|b> * <b|delr+rdel|0>
 Rotatory Strengths (R) in cgs (10**-40 erg-esu-cm/Gauss)
       state          XX          YY          ZZ    R(velocity)    E-M Angle
         1        -0.0111      0.1444     -0.1014      0.0106       90.00
         2         0.0050     -0.1302      0.1031     -0.0074       90.00
         3        -0.0214     -0.0435     -0.0166     -0.0271       90.00
 1/2[<0|r|b>*<b|rxdel|0> + (<0|rxdel|b>*<b|r|0>)*]
 Rotatory Strengths (R) in cgs (10**-40 erg-esu-cm/Gauss)
       state          XX          YY          ZZ     R(length)
         1         0.0069     -0.0049     -0.0039     -0.0006
         2         0.0095      0.0361     -0.0189      0.0089
         3        -0.0724      0.0033      0.0297     -0.0131
  1/2[<0|del|b>*<b|r|0> + (<0|r|b>*<b|del|0>)*] (Au)
       state          X           Y           Z        Dip. S.   Osc.(frdel)
         1        -0.0000     -0.0017      0.0000      0.0017      0.0011
         2         0.0021     -0.0000     -0.0020     -0.0000     -0.0000
         3        -0.0000     -0.0000      0.0000      0.0000      0.0000

 Excitation energies and oscillator strengths:
 
 Excited State   1:      Singlet-A      2.2788 eV  544.07 nm  f=0.0000  <S**2>=0.000
      18 -> 25        -0.11963
      21 -> 25         0.47806
      23 -> 25        -0.45439
      24 -> 25         0.15331
 This state for optimization and/or second-order correction.
 Total Energy, E(CIS/TDA) =  -738.263390510    
 Copying the excited state density for this state as the 1-particle RhoCI density.
 
 Excited State   2:      Singlet-A      2.8869 eV  429.47 nm  f=0.0006  <S**2>=0.000
      19 -> 25        -0.14315
      20 -> 25         0.24067
      22 -> 25         0.63468
 
 Excited State   3:      Singlet-A      3.9074 eV  317.31 nm  f=0.0000  <S**2>=0.000
      18 -> 25         0.37555
      21 -> 25         0.43773
      23 -> 25         0.34143
 SavETr:  write IOETrn=   770 NScale= 10 NData=  16 NLR=1 NState=    3 LETran=      64.
          IDoAtm=11111
          Differentiating once with respect to electric field.
                with respect to dipole field.
          Differentiating once with respect to nuclear coordinates.
 Keep R1 ints in memory in canonical form, NReq=220788045.
          There are     1 degrees of freedom in the 1st order CPHF.  IDoFFX=0 NUNeed=     1.
 LinEq1:  Iter=  0 NonCon=     1 RMS=2.57D-03 Max=3.38D-02 NDo=     1
 AX will form     1 AO Fock derivatives at one time.
 LinEq1:  Iter=  1 NonCon=     1 RMS=1.19D-03 Max=3.36D-02 NDo=     1
 LinEq1:  Iter=  2 NonCon=     1 RMS=3.96D-04 Max=4.55D-03 NDo=     1
 LinEq1:  Iter=  3 NonCon=     1 RMS=1.58D-04 Max=4.63D-03 NDo=     1
 LinEq1:  Iter=  4 NonCon=     1 RMS=4.65D-05 Max=8.32D-04 NDo=     1
 LinEq1:  Iter=  5 NonCon=     1 RMS=1.24D-05 Max=1.85D-04 NDo=     1
 LinEq1:  Iter=  6 NonCon=     1 RMS=5.70D-06 Max=1.02D-04 NDo=     1
 LinEq1:  Iter=  7 NonCon=     1 RMS=2.13D-06 Max=6.38D-05 NDo=     1
 LinEq1:  Iter=  8 NonCon=     1 RMS=7.66D-07 Max=2.38D-05 NDo=     1
 LinEq1:  Iter=  9 NonCon=     1 RMS=2.78D-07 Max=6.41D-06 NDo=     1
 LinEq1:  Iter= 10 NonCon=     1 RMS=8.87D-08 Max=1.60D-06 NDo=     1
 LinEq1:  Iter= 11 NonCon=     1 RMS=2.10D-08 Max=2.51D-07 NDo=     1
 LinEq1:  Iter= 12 NonCon=     1 RMS=6.69D-09 Max=9.21D-08 NDo=     1
 LinEq1:  Iter= 13 NonCon=     1 RMS=3.35D-09 Max=6.72D-08 NDo=     1
 LinEq1:  Iter= 14 NonCon=     1 RMS=1.49D-09 Max=3.26D-08 NDo=     1
 LinEq1:  Iter= 15 NonCon=     1 RMS=3.06D-10 Max=7.05D-09 NDo=     1
 LinEq1:  Iter= 16 NonCon=     1 RMS=6.20D-11 Max=1.04D-09 NDo=     1
 LinEq1:  Iter= 17 NonCon=     0 RMS=1.97D-11 Max=5.03D-10 NDo=     1
 Linear equations converged to 1.000D-10 1.000D-09 after    17 iterations.
 End of Minotr F.D. properties file   721 does not exist.
 End of Minotr F.D. properties file   722 does not exist.
 End of Minotr F.D. properties file   788 does not exist.

 **********************************************************************

            Population analysis using the SCF density.

 **********************************************************************

 Orbital symmetries:
       Occupied  (A) (A) (A) (A) (A) (A) (A) (A) (A) (A) (A) (A)
                 (A) (A) (A) (A) (A) (A) (A) (A) (A) (A) (A) (A)
       Virtual   (A) (A) (A) (A) (A) (A) (A) (A) (A) (A) (A) (A)
                 (A) (A) (A) (A) (A) (A) (A) (A) (A) (A) (A) (A)
                 (A) (A) (A) (A) (A) (A) (A) (A) (A) (A) (A) (A)
                 (A) (A) (A) (A) (A) (A) (A) (A) (A) (A) (A) (A)
                 (A) (A) (A) (A) (A) (A) (A) (A) (A) (A) (A) (A)
                 (A) (A) (A) (A) (A) (A) (A) (A) (A) (A) (A) (A)
                 (A) (A) (A) (A) (A) (A) (A) (A) (A) (A) (A) (A)
                 (A) (A) (A) (A) (A) (A) (A) (A) (A) (A) (A) (A)
                 (A) (A) (A) (A) (A) (A) (A) (A) (A) (A) (A) (A)
                 (A) (A) (A) (A) (A) (A) (A) (A) (A) (A) (A) (A)
                 (A) (A) (A) (A) (A) (A) (A) (A) (A) (A) (A) (A)
                 (A) (A) (A) (A) (A) (A) (A) (A) (A) (A) (A) (A)
                 (A) (A) (A) (A) (A) (A) (A) (A) (A) (A) (A) (A)
                 (A) (A) (A) (A) (A) (A) (A) (A) (A) (A) (A) (A)
                 (A) (A) (A) (A) (A) (A) (A) (A) (A) (A) (A)
 The electronic state is 1-A.
 Alpha  occ. eigenvalues -- -104.97097 -20.73051 -20.63760 -20.63754 -15.93282
 Alpha  occ. eigenvalues --  -10.68834  -8.15587  -8.15215  -8.15206  -1.72683
 Alpha  occ. eigenvalues --   -1.48285  -1.44516  -1.14196  -0.92244  -0.82337
 Alpha  occ. eigenvalues --   -0.81224  -0.79467  -0.64411  -0.57696  -0.56804
 Alpha  occ. eigenvalues --   -0.54317  -0.54018  -0.51520  -0.49410
 Alpha virt. eigenvalues --   -0.09193   0.07664   0.09449   0.11123   0.11405
 Alpha virt. eigenvalues --    0.12995   0.14906   0.15567   0.16573   0.23829
 Alpha virt. eigenvalues --    0.25067   0.26689   0.26772   0.29218   0.31610
 Alpha virt. eigenvalues --    0.33458   0.35253   0.36010   0.37463   0.39835
 Alpha virt. eigenvalues --    0.41689   0.43056   0.44148   0.45845   0.46062
 Alpha virt. eigenvalues --    0.47658   0.47897   0.50725   0.56552   0.57123
 Alpha virt. eigenvalues --    0.58091   0.62946   0.71967   0.76340   0.78335
 Alpha virt. eigenvalues --    0.83351   0.92524   0.93324   0.97155   0.99270
 Alpha virt. eigenvalues --    1.00474   1.07875   1.14985   1.15062   1.15560
 Alpha virt. eigenvalues --    1.18670   1.20106   1.20586   1.23218   1.24109
 Alpha virt. eigenvalues --    1.25349   1.27746   1.28625   1.29281   1.29935
 Alpha virt. eigenvalues --    1.35274   1.36871   1.37621   1.37858   1.42013
 Alpha virt. eigenvalues --    1.45033   1.47324   1.53934   1.58690   1.71904
 Alpha virt. eigenvalues --    1.73565   1.74588   1.78992   1.85325   1.90066
 Alpha virt. eigenvalues --    1.91058   2.07705   2.30474   2.31416   2.33014
 Alpha virt. eigenvalues --    2.36847   2.37551   2.42498   2.43316   2.49423
 Alpha virt. eigenvalues --    2.49838   2.53813   2.53959   2.54515   2.67042
 Alpha virt. eigenvalues --    2.78069   2.80249   2.81157   3.02137   3.07986
 Alpha virt. eigenvalues --    3.36394   3.44338   3.49169   3.53597   3.64620
 Alpha virt. eigenvalues --    3.65431   3.80831   3.81149   3.83798   3.95330
 Alpha virt. eigenvalues --    3.95455   3.96646   4.03140   4.06012   4.25677
 Alpha virt. eigenvalues --    4.25970   4.34859   4.38874   4.42008   4.54912
 Alpha virt. eigenvalues --    4.75786   4.92595   4.95923   5.13888   5.31201
 Alpha virt. eigenvalues --    5.35363   5.38592   5.40112   5.42529   5.42933
 Alpha virt. eigenvalues --    5.43737   5.45420   5.53816   5.56189   5.57301
 Alpha virt. eigenvalues --    5.57587   5.60443   5.61755   5.63476   5.66474
 Alpha virt. eigenvalues --    5.67134   5.85649   5.88715   5.91196   5.95349
 Alpha virt. eigenvalues --    6.04662   6.06508   6.11853   6.13385   6.19690
 Alpha virt. eigenvalues --    6.27800   6.53761   6.63167   6.65995   6.92167
 Alpha virt. eigenvalues --    6.96935   7.14035   7.96740   8.03547   8.55419
 Alpha virt. eigenvalues --   10.42289  10.77343  10.87475  10.99062  11.47346
 Alpha virt. eigenvalues --   11.67957  14.92521  14.96790  14.97287  14.98780
 Alpha virt. eigenvalues --   14.99682  15.00052  15.10638  15.16037  15.29807
 Alpha virt. eigenvalues --   15.37961  15.41311  15.46601  15.78518  15.87571
 Alpha virt. eigenvalues --   16.09788  26.57771  26.66256  27.34714  37.80907
 Alpha virt. eigenvalues --   51.77374  52.14295  52.25248 219.29391
          Condensed to atoms (all electrons):
               1          2          3          4          5
     1  N    6.463320  -0.365968  -0.366058  -0.226572  -0.138217
     2  O   -0.365968   9.269991  -0.061982  -0.191677   0.022663
     3  O   -0.366058  -0.061982   9.270088  -0.191665   0.022623
     4  O   -0.226572  -0.191677  -0.191665   8.974168   0.098918
     5  Cl  -0.138217   0.022663   0.022623   0.098918  16.818304
 Mulliken charges:
               1
     1  N    1.633495
     2  O   -0.673027
     3  O   -0.673006
     4  O   -0.463172
     5  Cl   0.175709
 Sum of Mulliken charges =   0.00000
 Mulliken charges with hydrogens summed into heavy atoms:
               1
     1  N    1.633495
     2  O   -0.673027
     3  O   -0.673006
     4  O   -0.463172
     5  Cl   0.175709
 Electronic spatial extent (au):  <R**2>=            499.2070
 Charge=              0.0000 electrons
 Dipole moment (field-independent basis, Debye):
    X=             -2.9075    Y=             -0.0002    Z=             -0.0240  Tot=              2.9076
 Quadrupole moment (field-independent basis, Debye-Ang):
   XX=            -31.1445   YY=            -37.2755   ZZ=            -33.3414
   XY=             -0.0007   XZ=              3.1623   YZ=             -0.0007
 Traceless Quadrupole moment (field-independent basis, Debye-Ang):
   XX=              2.7759   YY=             -3.3550   ZZ=              0.5791
   XY=             -0.0007   XZ=              3.1623   YZ=             -0.0007
 Octapole moment (field-independent basis, Debye-Ang**2):
  XXX=            -15.2950  YYY=             -0.0018  ZZZ=              0.3858  XYY=             -2.4455
  XXY=              0.0025  XXZ=             -0.5938  XZZ=              0.5996  YZZ=              0.0001
  YYZ=              0.4836  XYZ=             -0.0001
 Hexadecapole moment (field-independent basis, Debye-Ang**3):
 XXXX=           -388.3535 YYYY=           -105.3103 ZZZZ=            -59.9578 XXXY=             -0.0040
 XXXZ=             17.8539 YYYX=             -0.0022 YYYZ=             -0.0002 ZZZX=              1.0696
 ZZZY=             -0.0009 XXYY=            -93.4636 XXZZ=            -76.5958 YYZZ=            -27.6030
 XXYZ=             -0.0032 YYXZ=              0.2936 ZZXY=             -0.0006
 N-N= 2.211990741612D+02 E-N=-2.194842886516D+03  KE= 7.379287379060D+02
 Calling FoFJK, ICntrl=  10005127 FMM=F ISym2X=0 I1Cent= 0 IOpClX= 0 NMat=1 NMatS=1 NMatT=0.
 ***** Axes restored to original set *****
 -------------------------------------------------------------------
 Center     Atomic                   Forces (Hartrees/Bohr)
 Number     Number              X              Y              Z
 -------------------------------------------------------------------
      1        7           0.002925973   -0.000001182   -0.001465760
      2        8          -0.002064659    0.005018765    0.001314326
      3        8          -0.002061848   -0.005021694    0.001316872
      4        8          -0.001400325    0.000006358   -0.002757188
      5       17           0.002600859   -0.000002247    0.001591750
 -------------------------------------------------------------------
 Cartesian Forces:  Max     0.005021694 RMS     0.002475911

 GradGradGradGradGradGradGradGradGradGradGradGradGradGradGradGradGradGrad
 Berny optimization.
 FormGI is forming the generalized inverse of G from B-inverse, IUseBI=4.
 Internal  Forces:  Max     0.005581938 RMS     0.002601740
 Search for a local minimum.
 Step number   1 out of a maximum of   21
 All quantities printed in internal units (Hartrees-Bohrs-Radians)
 Mixed Optimization -- RFO/linear search
 Second derivative matrix not updated -- first step.
 The second derivative matrix:
                          R1        R2        R3        R4        A1
           R1           1.18059
           R2           0.00000   1.18059
           R3           0.00000   0.00000   0.60205
           R4           0.00000   0.00000   0.00000   0.13568
           A1           0.00000   0.00000   0.00000   0.00000   0.25000
           A2           0.00000   0.00000   0.00000   0.00000   0.00000
           A3           0.00000   0.00000   0.00000   0.00000   0.00000
           A4           0.00000   0.00000   0.00000   0.00000   0.00000
           D1           0.00000   0.00000   0.00000   0.00000   0.00000
           D2           0.00000   0.00000   0.00000   0.00000   0.00000
           D3           0.00000   0.00000   0.00000   0.00000   0.00000
                          A2        A3        A4        D1        D2
           A2           0.25000
           A3           0.00000   0.25000
           A4           0.00000   0.00000   0.25000
           D1           0.00000   0.00000   0.00000   0.04262
           D2           0.00000   0.00000   0.00000   0.00000   0.02260
           D3           0.00000   0.00000   0.00000   0.00000   0.00000
                          D3
           D3           0.02260
 ITU=  0
     Eigenvalues ---    0.02260   0.03718   0.13568   0.24999   0.25000
     Eigenvalues ---    0.25000   0.60205   1.18059   1.18059
 RFO step:  Lambda=-1.28457744D-04 EMin= 2.25964264D-02
 Linear search not attempted -- first point.
 Iteration  1 RMS(Cart)=  0.00706435 RMS(Int)=  0.00000709
 Iteration  2 RMS(Cart)=  0.00000691 RMS(Int)=  0.00000352
 Iteration  3 RMS(Cart)=  0.00000000 RMS(Int)=  0.00000352
 Variable       Old X    -DE/DX   Delta X   Delta X   Delta X     New X
                                 (Linear)    (Quad)   (Total)
    R1        2.22171  -0.00558   0.00000  -0.00473  -0.00473   2.21698
    R2        2.22171  -0.00558   0.00000  -0.00473  -0.00473   2.21698
    R3        2.50778  -0.00167   0.00000  -0.00277  -0.00277   2.50502
    R4        3.85997  -0.00305   0.00000  -0.02245  -0.02245   3.83753
    A1        2.24747   0.00004   0.00000   0.00019   0.00018   2.24765
    A2        2.01780  -0.00002   0.00000  -0.00005  -0.00005   2.01775
    A3        2.01785  -0.00002   0.00000  -0.00006  -0.00007   2.01778
    A4        1.92873   0.00003   0.00000   0.00012   0.00012   1.92886
    D1       -3.12855  -0.00027   0.00000  -0.00720  -0.00720  -3.13574
    D2       -1.57693   0.00012   0.00000   0.00324   0.00324  -1.57369
    D3        1.57594  -0.00011   0.00000  -0.00298  -0.00298   1.57296
         Item               Value     Threshold  Converged?
 Maximum Force            0.005582     0.000450     NO 
 RMS     Force            0.002602     0.000300     NO 
 Maximum Displacement     0.019493     0.001800     NO 
 RMS     Displacement     0.007063     0.001200     NO 
 Predicted change in Energy=-6.426924D-05
 GradGradGradGradGradGradGradGradGradGradGradGradGradGradGradGradGradGrad

                          Input orientation:                          
 ---------------------------------------------------------------------
 Center     Atomic      Atomic             Coordinates (Angstroms)
 Number     Number       Type             X           Y           Z
 ---------------------------------------------------------------------
      1          7           0        1.025695    0.000051    0.052417
      2          8           0        1.426734   -1.057646   -0.258692
      3          8           0        1.426081    1.058203   -0.257988
      4          8           0       -0.017519   -0.000561    0.870289
      5         17           0       -1.751065   -0.000053   -0.187392
 ---------------------------------------------------------------------
                    Distance matrix (angstroms):
                    1          2          3          4          5
     1  N    0.000000
     2  O    1.173177   0.000000
     3  O    1.173177   2.115849   0.000000
     4  O    1.325598   2.116104   2.116122   0.000000
     5  Cl   2.787095   3.349924   3.349500   2.030731   0.000000
 Stoichiometry    ClNO3
 Framework group  C1[X(ClNO3)]
 Deg. of freedom     9
 Full point group                 C1      NOp   1
 Largest Abelian subgroup         C1      NOp   1
 Largest concise Abelian subgroup C1      NOp   1
                         Standard orientation:                         
 ---------------------------------------------------------------------
 Center     Atomic      Atomic             Coordinates (Angstroms)
 Number     Number       Type             X           Y           Z
 ---------------------------------------------------------------------
      1          7           0        1.023694    0.000030    0.052975
      2          8           0        1.424926   -1.057717   -0.257719
      3          8           0        1.424355    1.058132   -0.257243
      4          8           0       -0.020134   -0.000454    0.870063
      5         17           0       -1.752884    0.000006   -0.188919
 ---------------------------------------------------------------------
 Rotational constants (GHZ):           9.8478598           2.4952185           2.2680370
 Standard basis: 6-311++G(3df,3pd) (5D, 7F)
 There are   233 symmetry adapted cartesian basis functions of A   symmetry.
 There are   203 symmetry adapted basis functions of A   symmetry.
   203 basis functions,   307 primitive gaussians,   233 cartesian basis functions
    24 alpha electrons       24 beta electrons
       nuclear repulsion energy       221.8931402837 Hartrees.
 NAtoms=    5 NActive=    5 NUniq=    5 SFac= 1.00D+00 NAtFMM=   60 NAOKFM=F Big=F
 Integral buffers will be    131072 words long.
 Raffenetti 1 integral format.
 Two-electron integral symmetry is turned on.
 One-electron integrals computed using PRISM.
 NBasis=   203 RedAO= T EigKep=  1.22D-04  NBF=   203
 NBsUse=   203 1.00D-06 EigRej= -1.00D+00 NBFU=   203
 Initial guess from the checkpoint file:  "/localscratch/alrebei.28376401.0/Gau-14109.chk"
 B after Tr=    -0.000000   -0.000000    0.000000
         Rot=    1.000000    0.000056    0.000360    0.000015 Ang=   0.04 deg.
 Keep R1 ints in memory in canonical form, NReq=220787261.
 LinEq1:  Iter=  0 NonCon=     1 RMS=5.13D-05 Max=1.05D-03 NDo=     1
 AX will form     1 AO Fock derivatives at one time.
 LinEq1:  Iter=  1 NonCon=     1 RMS=2.20D-05 Max=5.87D-04 NDo=     1
 LinEq1:  Iter=  2 NonCon=     1 RMS=8.47D-06 Max=2.61D-04 NDo=     1
 LinEq1:  Iter=  3 NonCon=     1 RMS=3.74D-06 Max=1.26D-04 NDo=     1
 LinEq1:  Iter=  4 NonCon=     1 RMS=1.52D-06 Max=4.85D-05 NDo=     1
 LinEq1:  Iter=  5 NonCon=     1 RMS=5.14D-07 Max=9.16D-06 NDo=     1
 LinEq1:  Iter=  6 NonCon=     1 RMS=2.28D-07 Max=4.12D-06 NDo=     1
 LinEq1:  Iter=  7 NonCon=     1 RMS=8.13D-08 Max=2.48D-06 NDo=     1
 LinEq1:  Iter=  8 NonCon=     1 RMS=2.34D-08 Max=3.25D-07 NDo=     1
 LinEq1:  Iter=  9 NonCon=     1 RMS=6.43D-09 Max=1.16D-07 NDo=     1
 LinEq1:  Iter= 10 NonCon=     0 RMS=1.77D-09 Max=3.03D-08 NDo=     1
 Linear equations converged to 9.269D-09 9.269D-08 after    10 iterations.
     Accept linear search using points  1 and  2.
     Minimum is close to point  2 DX= -1.18D-04 DF= -5.68D-13 DXR=  1.18D-04 DFR=  1.37D-08 which will be used.
 LinEq1:  Iter=  0 NonCon=     1 RMS=4.34D-08 Max=9.32D-07 NDo=     1
 LinEq1:  Iter=  1 NonCon=     1 RMS=1.97D-08 Max=4.35D-07 NDo=     1
 LinEq1:  Iter=  2 NonCon=     1 RMS=9.13D-09 Max=3.00D-07 NDo=     1
 LinEq1:  Iter=  3 NonCon=     1 RMS=2.89D-09 Max=8.22D-08 NDo=     1
 LinEq1:  Iter=  4 NonCon=     1 RMS=7.82D-10 Max=1.48D-08 NDo=     1
 LinEq1:  Iter=  5 NonCon=     1 RMS=2.57D-10 Max=4.25D-09 NDo=     1
 LinEq1:  Iter=  6 NonCon=     1 RMS=1.41D-10 Max=3.57D-09 NDo=     1
 LinEq1:  Iter=  7 NonCon=     1 RMS=6.74D-11 Max=1.57D-09 NDo=     1
 LinEq1:  Iter=  8 NonCon=     0 RMS=2.20D-11 Max=3.71D-10 NDo=     1
 Linear equations converged to 6.181D-11 6.181D-10 after     8 iterations.
 SCF Done:  E(RHF) =  -738.349152584     a.u. after    3 cycles
            Convg  =    0.2050D-07                    21 Fock formations.
              S**2 =  0.0000                  -V/T =  2.0005
 ExpMin= 4.83D-02 ExpMax= 1.06D+05 ExpMxC= 3.62D+03 IAcc=3 IRadAn=         5 AccDes= 0.00D+00
 HarFok:  IExCor=  205 AccDes= 0.00D+00 IRadAn=         5 IDoV=-2 UseB2=F ITyADJ=14
 ICtDFT= 12500011 ScaDFX=  1.000000  1.000000  1.000000  1.000000
 Range of M.O.s used for correlation:    10   203
 NBasis=   203 NAE=    24 NBE=    24 NFC=     9 NFV=     0
 NROrb=    194 NOA=    15 NOB=    15 NVA=   179 NVB=   179

 **** Warning!!: The largest alpha MO coefficient is  0.41594499D+02

 Orbital symmetries:
       Occupied  (A) (A) (A) (A) (A) (A) (A) (A) (A) (A) (A) (A)
                 (A) (A) (A) (A) (A) (A) (A) (A) (A) (A) (A) (A)
       Virtual   (A) (A) (A) (A) (A) (A) (A) (A) (A) (A) (A) (A)
                 (A) (A) (A) (A) (A) (A) (A) (A) (A) (A) (A) (A)
                 (A) (A) (A) (A) (A) (A) (A) (A) (A) (A) (A) (A)
                 (A) (A) (A) (A) (A) (A) (A) (A) (A) (A) (A) (A)
                 (A) (A) (A) (A) (A) (A) (A) (A) (A) (A) (A) (A)
                 (A) (A) (A) (A) (A) (A) (A) (A) (A) (A) (A) (A)
                 (A) (A) (A) (A) (A) (A) (A) (A) (A) (A) (A) (A)
                 (A) (A) (A) (A) (A) (A) (A) (A) (A) (A) (A) (A)
                 (A) (A) (A) (A) (A) (A) (A) (A) (A) (A) (A) (A)
                 (A) (A) (A) (A) (A) (A) (A) (A) (A) (A) (A) (A)
                 (A) (A) (A) (A) (A) (A) (A) (A) (A) (A) (A) (A)
                 (A) (A) (A) (A) (A) (A) (A) (A) (A) (A) (A) (A)
                 (A) (A) (A) (A) (A) (A) (A) (A) (A) (A) (A) (A)
                 (A) (A) (A) (A) (A) (A) (A) (A) (A) (A) (A) (A)
                 (A) (A) (A) (A) (A) (A) (A) (A) (A) (A) (A)
 Generating guess from densities on rwf.
 Convergence on wavefunction:    0.000001000000000
 Iteration     1 Dimension     3 NMult     0 NNew      3
 CISAX will form     3 AO SS matrices at one time.
 Iteration     2 Dimension     6 NMult     3 NNew      3
 Iteration     3 Dimension     9 NMult     6 NNew      3
 Iteration     4 Dimension    12 NMult     9 NNew      3
 Iteration     5 Dimension    15 NMult    12 NNew      3
 Iteration     6 Dimension    18 NMult    15 NNew      3
 Iteration     7 Dimension    21 NMult    18 NNew      3
 Iteration     8 Dimension    24 NMult    21 NNew      3
 Iteration     9 Dimension    26 NMult    24 NNew      2
 Iteration    10 Dimension    28 NMult    26 NNew      2
 Iteration    11 Dimension    30 NMult    28 NNew      2
 ***********************************************************************
 Excited states from <AA,BB:AA,BB> singles matrix:
 ***********************************************************************
 
 Ground to excited state transition densities written to RWF  633
 Ground to excited state transition electric dipole moments (Au):
       state          X           Y           Z        Dip. S.      Osc.
         1        -0.0000      0.0226     -0.0000      0.0005      0.0000
         2         0.0840     -0.0000      0.0430      0.0089      0.0006
         3         0.0001     -0.0081      0.0000      0.0001      0.0000
 Ground to excited state transition velocity dipole moments (Au):
       state          X           Y           Z        Dip. S.      Osc.
         1         0.0000     -0.0726     -0.0000      0.0053      0.0410
         2         0.0251      0.0000     -0.0478      0.0029      0.0179
         3        -0.0000      0.0004      0.0000      0.0000      0.0000
 Ground to excited state transition magnetic dipole moments (Au):
       state          X           Y           Z
         1         0.2273      0.0002     -0.3366
         2        -0.0001      0.8523      0.0005
         3         0.5756      0.0004     -0.7744
 Ground to excited state transition velocity quadrupole moments (Au):
       state          XX          YY          ZZ          XY          XZ          YZ
         1        -0.0000      0.0001     -0.0000      0.1534      0.0001     -0.0323
         2        -0.1855     -0.0112     -0.0038     -0.0001      0.1380      0.0000
         3        -0.0000     -0.0001      0.0000      0.0259      0.0001      0.0368
 <0|del|b> * <b|rxdel|0> + <0|del|b> * <b|delr+rdel|0>
 Rotatory Strengths (R) in cgs (10**-40 erg-esu-cm/Gauss)
       state          XX          YY          ZZ    R(velocity)    E-M Angle
         1        -0.0072      0.1030     -0.0762      0.0065       90.00
         2         0.0028     -0.0944      0.0726     -0.0063       90.00
         3        -0.0154     -0.0322     -0.0133     -0.0203       90.00
 1/2[<0|r|b>*<b|rxdel|0> + (<0|rxdel|b>*<b|r|0>)*]
 Rotatory Strengths (R) in cgs (10**-40 erg-esu-cm/Gauss)
       state          XX          YY          ZZ     R(length)
         1         0.0049     -0.0034     -0.0031     -0.0005
         2         0.0074      0.0257     -0.0139      0.0064
         3        -0.0539      0.0021      0.0229     -0.0096
  1/2[<0|del|b>*<b|r|0> + (<0|r|b>*<b|del|0>)*] (Au)
       state          X           Y           Z        Dip. S.   Osc.(frdel)
         1        -0.0000     -0.0016      0.0000      0.0016      0.0011
         2         0.0021     -0.0000     -0.0021     -0.0001     -0.0000
         3        -0.0000     -0.0000      0.0000      0.0000      0.0000

 Excitation energies and oscillator strengths:
 
 Excited State   1:      Singlet-A      2.3318 eV  531.72 nm  f=0.0000  <S**2>=0.000
      18 -> 25        -0.11722
      21 -> 25         0.47023
      23 -> 25        -0.45997
      24 -> 25         0.16107
 This state for optimization and/or second-order correction.
 Total Energy, E(CIS/TDA) =  -738.263461742    
 Copying the excited state density for this state as the 1-particle RhoCI density.
 
 Excited State   2:      Singlet-A      2.9529 eV  419.88 nm  f=0.0006  <S**2>=0.000
      19 -> 25        -0.12747
      20 -> 25         0.24196
      22 -> 25         0.63712
 
 Excited State   3:      Singlet-A      3.9891 eV  310.81 nm  f=0.0000  <S**2>=0.000
      18 -> 25         0.36781
      21 -> 25         0.44321
      23 -> 25         0.33982
 SavETr:  write IOETrn=   770 NScale= 10 NData=  16 NLR=1 NState=    3 LETran=      64.
          IDoAtm=11111
          Differentiating once with respect to electric field.
                with respect to dipole field.
          Differentiating once with respect to nuclear coordinates.
 Keep R1 ints in memory in canonical form, NReq=220788045.
          There are     1 degrees of freedom in the 1st order CPHF.  IDoFFX=0 NUNeed=     1.
 LinEq1:  Iter=  0 NonCon=     1 RMS=2.56D-03 Max=3.43D-02 NDo=     1
 AX will form     1 AO Fock derivatives at one time.
 LinEq1:  Iter=  1 NonCon=     1 RMS=1.17D-03 Max=3.25D-02 NDo=     1
 LinEq1:  Iter=  2 NonCon=     1 RMS=3.90D-04 Max=4.57D-03 NDo=     1
 LinEq1:  Iter=  3 NonCon=     1 RMS=1.56D-04 Max=4.74D-03 NDo=     1
 LinEq1:  Iter=  4 NonCon=     1 RMS=4.60D-05 Max=8.50D-04 NDo=     1
 LinEq1:  Iter=  5 NonCon=     1 RMS=1.23D-05 Max=1.93D-04 NDo=     1
 LinEq1:  Iter=  6 NonCon=     1 RMS=5.66D-06 Max=1.02D-04 NDo=     1
 LinEq1:  Iter=  7 NonCon=     1 RMS=2.11D-06 Max=6.30D-05 NDo=     1
 LinEq1:  Iter=  8 NonCon=     1 RMS=7.50D-07 Max=2.32D-05 NDo=     1
 LinEq1:  Iter=  9 NonCon=     1 RMS=2.70D-07 Max=6.25D-06 NDo=     1
 LinEq1:  Iter= 10 NonCon=     1 RMS=8.63D-08 Max=1.57D-06 NDo=     1
 LinEq1:  Iter= 11 NonCon=     1 RMS=2.04D-08 Max=2.46D-07 NDo=     1
 LinEq1:  Iter= 12 NonCon=     1 RMS=6.03D-09 Max=8.49D-08 NDo=     1
 LinEq1:  Iter= 13 NonCon=     1 RMS=2.58D-09 Max=5.25D-08 NDo=     1
 LinEq1:  Iter= 14 NonCon=     1 RMS=1.37D-09 Max=2.99D-08 NDo=     1
 LinEq1:  Iter= 15 NonCon=     1 RMS=2.92D-10 Max=6.84D-09 NDo=     1
 LinEq1:  Iter= 16 NonCon=     0 RMS=5.76D-11 Max=8.23D-10 NDo=     1
 Linear equations converged to 1.000D-10 1.000D-09 after    16 iterations.
 End of Minotr F.D. properties file   721 does not exist.
 End of Minotr F.D. properties file   722 does not exist.
 End of Minotr F.D. properties file   788 does not exist.
 Calling FoFJK, ICntrl=  10005127 FMM=F ISym2X=0 I1Cent= 0 IOpClX= 0 NMat=1 NMatS=1 NMatT=0.
 ***** Axes restored to original set *****
 -------------------------------------------------------------------
 Center     Atomic                   Forces (Hartrees/Bohr)
 Number     Number              X              Y              Z
 -------------------------------------------------------------------
      1        7           0.000708655   -0.000001207   -0.001292249
      2        8          -0.000094365    0.000439797    0.000441335
      3        8          -0.000093131   -0.000439914    0.000443814
      4        8          -0.000960434    0.000002678   -0.000036035
      5       17           0.000439275   -0.000001354    0.000443134
 -------------------------------------------------------------------
 Cartesian Forces:  Max     0.001292249 RMS     0.000534256

 GradGradGradGradGradGradGradGradGradGradGradGradGradGradGradGradGradGrad
 Berny optimization.
 Using GEDIIS/GDIIS optimizer.
 FormGI is forming the generalized inverse of G from B-inverse, IUseBI=4.
 Internal  Forces:  Max     0.000660533 RMS     0.000421815
 Search for a local minimum.
 Step number   2 out of a maximum of   21
 All quantities printed in internal units (Hartrees-Bohrs-Radians)
 Mixed Optimization -- En-DIIS/RFO-DIIS
 Update second derivatives using D2CorX and points    1    2
 DE= -7.12D-05 DEPred=-6.43D-05 R= 1.11D+00
 TightC=F SS=  1.41D+00  RLast= 2.50D-02 DXNew= 5.0454D-01 7.5144D-02
 Trust test= 1.11D+00 RLast= 2.50D-02 DXMaxT set to 3.00D-01
 The second derivative matrix:
                          R1        R2        R3        R4        A1
           R1           1.15835
           R2          -0.02225   1.15833
           R3           0.02939   0.02941   0.62747
           R4          -0.02547  -0.02548   0.00989   0.11531
           A1           0.00803   0.00803   0.00339   0.00402   0.25015
           A2          -0.00377  -0.00377  -0.00164  -0.00186  -0.00008
           A3          -0.00388  -0.00388  -0.00167  -0.00193  -0.00008
           A4           0.02486   0.02487   0.01127   0.01215   0.00064
           D1           0.01453   0.01454   0.00890   0.00625   0.00088
           D2          -0.00888  -0.00888  -0.00462  -0.00412  -0.00036
           D3           0.00908   0.00908   0.00467   0.00423   0.00036
                          A2        A3        A4        D1        D2
           A2           0.25004
           A3           0.00004   0.25004
           A4          -0.00034  -0.00033   0.25251
           D1          -0.00043  -0.00044   0.00305   0.04541
           D2           0.00018   0.00018  -0.00131  -0.00135   0.02321
           D3          -0.00018  -0.00018   0.00130   0.00136  -0.00062
                          D3
           D3           0.02322
 ITU=  1  0
 Use linear search instead of GDIIS.
     Eigenvalues ---    0.02260   0.03930   0.11341   0.24999   0.25000
     Eigenvalues ---    0.25239   0.62478   1.14299   1.18059
 RFO step:  Lambda=-1.12688968D-05 EMin= 2.25961722D-02
 Quartic linear search produced a step of  0.11434.
 Iteration  1 RMS(Cart)=  0.00350984 RMS(Int)=  0.00001549
 Iteration  2 RMS(Cart)=  0.00001349 RMS(Int)=  0.00000797
 Iteration  3 RMS(Cart)=  0.00000000 RMS(Int)=  0.00000797
 Variable       Old X    -DE/DX   Delta X   Delta X   Delta X     New X
                                 (Linear)    (Quad)   (Total)
    R1        2.21698  -0.00055  -0.00054  -0.00039  -0.00093   2.21606
    R2        2.21698  -0.00055  -0.00054  -0.00039  -0.00093   2.21606
    R3        2.50502   0.00066  -0.00032   0.00130   0.00098   2.50600
    R4        3.83753  -0.00061  -0.00257  -0.00431  -0.00687   3.83065
    A1        2.24765   0.00018   0.00002   0.00078   0.00079   2.24844
    A2        2.01775  -0.00009  -0.00001  -0.00041  -0.00043   2.01732
    A3        2.01778  -0.00009  -0.00001  -0.00042  -0.00045   2.01733
    A4        1.92886   0.00057   0.00001   0.00253   0.00254   1.93140
    D1       -3.13574   0.00037  -0.00082   0.01130   0.01048  -3.12526
    D2       -1.57369  -0.00016   0.00037  -0.00477  -0.00440  -1.57809
    D3        1.57296   0.00016  -0.00034   0.00499   0.00465   1.57761
         Item               Value     Threshold  Converged?
 Maximum Force            0.000661     0.000450     NO 
 RMS     Force            0.000422     0.000300     NO 
 Maximum Displacement     0.005619     0.001800     NO 
 RMS     Displacement     0.003506     0.001200     NO 
 Predicted change in Energy=-6.407318D-06
 GradGradGradGradGradGradGradGradGradGradGradGradGradGradGradGradGradGrad

                          Input orientation:                          
 ---------------------------------------------------------------------
 Center     Atomic      Atomic             Coordinates (Angstroms)
 Number     Number       Type             X           Y           Z
 ---------------------------------------------------------------------
      1          7           0        1.024802    0.000063    0.049672
      2          8           0        1.428368   -1.057404   -0.257068
      3          8           0        1.427825    1.057958   -0.256309
      4          8           0       -0.019251   -0.000506    0.867315
      5         17           0       -1.751818   -0.000117   -0.184976
 ---------------------------------------------------------------------
                    Distance matrix (angstroms):
                    1          2          3          4          5
     1  N    0.000000
     2  O    1.172686   0.000000
     3  O    1.172686   2.115362   0.000000
     4  O    1.326118   2.115862   2.115870   0.000000
     5  Cl   2.786518   3.352109   3.351827   2.027093   0.000000
 Stoichiometry    ClNO3
 Framework group  C1[X(ClNO3)]
 Deg. of freedom     9
 Full point group                 C1      NOp   1
 Largest Abelian subgroup         C1      NOp   1
 Largest concise Abelian subgroup C1      NOp   1
                         Standard orientation:                         
 ---------------------------------------------------------------------
 Center     Atomic      Atomic             Coordinates (Angstroms)
 Number     Number       Type             X           Y           Z
 ---------------------------------------------------------------------
      1          7           0        1.022885    0.000019    0.050571
      2          8           0        1.426854   -1.057545   -0.255305
      3          8           0        1.426474    1.057817   -0.254997
      4          8           0       -0.022462   -0.000296    0.866560
      5         17           0       -1.753360    0.000003   -0.188474
 ---------------------------------------------------------------------
 Rotational constants (GHZ):           9.8789219           2.4942771           2.2659539
 Standard basis: 6-311++G(3df,3pd) (5D, 7F)
 There are   233 symmetry adapted cartesian basis functions of A   symmetry.
 There are   203 symmetry adapted basis functions of A   symmetry.
   203 basis functions,   307 primitive gaussians,   233 cartesian basis functions
    24 alpha electrons       24 beta electrons
       nuclear repulsion energy       221.9523208856 Hartrees.
 NAtoms=    5 NActive=    5 NUniq=    5 SFac= 1.00D+00 NAtFMM=   60 NAOKFM=F Big=F
 Integral buffers will be    131072 words long.
 Raffenetti 1 integral format.
 Two-electron integral symmetry is turned on.
 One-electron integrals computed using PRISM.
 NBasis=   203 RedAO= T EigKep=  1.21D-04  NBF=   203
 NBsUse=   203 1.00D-06 EigRej= -1.00D+00 NBFU=   203
 Initial guess from the checkpoint file:  "/localscratch/alrebei.28376401.0/Gau-14109.chk"
 B after Tr=     0.000000    0.000000    0.000000
         Rot=    1.000000    0.000055    0.000233    0.000015 Ang=   0.03 deg.
 Keep R1 ints in memory in canonical form, NReq=220787261.
 LinEq1:  Iter=  0 NonCon=     1 RMS=4.96D-05 Max=1.09D-03 NDo=     1
 AX will form     1 AO Fock derivatives at one time.
 LinEq1:  Iter=  1 NonCon=     1 RMS=7.12D-06 Max=1.95D-04 NDo=     1
 LinEq1:  Iter=  2 NonCon=     1 RMS=3.03D-06 Max=1.05D-04 NDo=     1
 LinEq1:  Iter=  3 NonCon=     1 RMS=1.66D-06 Max=4.52D-05 NDo=     1
 LinEq1:  Iter=  4 NonCon=     1 RMS=5.19D-07 Max=8.05D-06 NDo=     1
 LinEq1:  Iter=  5 NonCon=     1 RMS=1.88D-07 Max=6.93D-06 NDo=     1
 LinEq1:  Iter=  6 NonCon=     1 RMS=9.95D-08 Max=3.40D-06 NDo=     1
 LinEq1:  Iter=  7 NonCon=     1 RMS=3.90D-08 Max=8.51D-07 NDo=     1
 LinEq1:  Iter=  8 NonCon=     1 RMS=1.02D-08 Max=1.34D-07 NDo=     1
 LinEq1:  Iter=  9 NonCon=     0 RMS=2.86D-09 Max=4.82D-08 NDo=     1
 Linear equations converged to 9.269D-09 9.269D-08 after     9 iterations.
     Accept linear search using points  1 and  2.
     Minimum is close to point  2 DX= -1.89D-05 DF=  0.00D+00 DXR=  1.89D-05 DFR=  0.00D+00 which will be used.
 LinEq1:  Iter=  0 NonCon=     1 RMS=5.72D-08 Max=1.54D-06 NDo=     1
 LinEq1:  Iter=  1 NonCon=     1 RMS=1.98D-08 Max=3.30D-07 NDo=     1
 LinEq1:  Iter=  2 NonCon=     1 RMS=5.57D-09 Max=1.01D-07 NDo=     1
 LinEq1:  Iter=  3 NonCon=     1 RMS=3.26D-09 Max=9.90D-08 NDo=     1
 LinEq1:  Iter=  4 NonCon=     1 RMS=1.48D-09 Max=4.45D-08 NDo=     1
 LinEq1:  Iter=  5 NonCon=     1 RMS=6.61D-10 Max=1.81D-08 NDo=     1
 LinEq1:  Iter=  6 NonCon=     1 RMS=2.46D-10 Max=8.06D-09 NDo=     1
 LinEq1:  Iter=  7 NonCon=     1 RMS=6.51D-11 Max=1.60D-09 NDo=     1
 LinEq1:  Iter=  8 NonCon=     0 RMS=1.88D-11 Max=3.07D-10 NDo=     1
 Linear equations converged to 9.314D-11 9.314D-10 after     8 iterations.
 SCF Done:  E(RHF) =  -738.349832859     a.u. after    3 cycles
            Convg  =    0.1340D-07                    20 Fock formations.
              S**2 =  0.0000                  -V/T =  2.0005
 ExpMin= 4.83D-02 ExpMax= 1.06D+05 ExpMxC= 3.62D+03 IAcc=3 IRadAn=         5 AccDes= 0.00D+00
 HarFok:  IExCor=  205 AccDes= 0.00D+00 IRadAn=         5 IDoV=-2 UseB2=F ITyADJ=14
 ICtDFT= 12500011 ScaDFX=  1.000000  1.000000  1.000000  1.000000
 Range of M.O.s used for correlation:    10   203
 NBasis=   203 NAE=    24 NBE=    24 NFC=     9 NFV=     0
 NROrb=    194 NOA=    15 NOB=    15 NVA=   179 NVB=   179

 **** Warning!!: The largest alpha MO coefficient is  0.41726248D+02

 Orbital symmetries:
       Occupied  (A) (A) (A) (A) (A) (A) (A) (A) (A) (A) (A) (A)
                 (A) (A) (A) (A) (A) (A) (A) (A) (A) (A) (A) (A)
       Virtual   (A) (A) (A) (A) (A) (A) (A) (A) (A) (A) (A) (A)
                 (A) (A) (A) (A) (A) (A) (A) (A) (A) (A) (A) (A)
                 (A) (A) (A) (A) (A) (A) (A) (A) (A) (A) (A) (A)
                 (A) (A) (A) (A) (A) (A) (A) (A) (A) (A) (A) (A)
                 (A) (A) (A) (A) (A) (A) (A) (A) (A) (A) (A) (A)
                 (A) (A) (A) (A) (A) (A) (A) (A) (A) (A) (A) (A)
                 (A) (A) (A) (A) (A) (A) (A) (A) (A) (A) (A) (A)
                 (A) (A) (A) (A) (A) (A) (A) (A) (A) (A) (A) (A)
                 (A) (A) (A) (A) (A) (A) (A) (A) (A) (A) (A) (A)
                 (A) (A) (A) (A) (A) (A) (A) (A) (A) (A) (A) (A)
                 (A) (A) (A) (A) (A) (A) (A) (A) (A) (A) (A) (A)
                 (A) (A) (A) (A) (A) (A) (A) (A) (A) (A) (A) (A)
                 (A) (A) (A) (A) (A) (A) (A) (A) (A) (A) (A) (A)
                 (A) (A) (A) (A) (A) (A) (A) (A) (A) (A) (A) (A)
                 (A) (A) (A) (A) (A) (A) (A) (A) (A) (A) (A)
 Generating guess from densities on rwf.
 Convergence on wavefunction:    0.000001000000000
 Iteration     1 Dimension     3 NMult     0 NNew      3
 CISAX will form     3 AO SS matrices at one time.
 Iteration     2 Dimension     6 NMult     3 NNew      3
 Iteration     3 Dimension     9 NMult     6 NNew      3
 Iteration     4 Dimension    12 NMult     9 NNew      3
 Iteration     5 Dimension    15 NMult    12 NNew      3
 Iteration     6 Dimension    18 NMult    15 NNew      3
 Iteration     7 Dimension    21 NMult    18 NNew      3
 Iteration     8 Dimension    24 NMult    21 NNew      3
 Iteration     9 Dimension    27 NMult    24 NNew      3
 Iteration    10 Dimension    30 NMult    27 NNew      3
 Iteration    11 Dimension    32 NMult    30 NNew      2
 ***********************************************************************
 Excited states from <AA,BB:AA,BB> singles matrix:
 ***********************************************************************
 
 Ground to excited state transition densities written to RWF  633
 Ground to excited state transition electric dipole moments (Au):
       state          X           Y           Z        Dip. S.      Osc.
         1        -0.0000      0.0222     -0.0000      0.0005      0.0000
         2         0.0849     -0.0000      0.0432      0.0091      0.0007
         3         0.0001     -0.0086      0.0000      0.0001      0.0000
 Ground to excited state transition velocity dipole moments (Au):
       state          X           Y           Z        Dip. S.      Osc.
         1         0.0000     -0.0729     -0.0000      0.0053      0.0410
         2         0.0251      0.0000     -0.0481      0.0029      0.0179
         3        -0.0000      0.0003      0.0000      0.0000      0.0000
 Ground to excited state transition magnetic dipole moments (Au):
       state          X           Y           Z
         1         0.2258      0.0001     -0.3363
         2        -0.0001      0.8498      0.0003
         3         0.5752      0.0002     -0.7720
 Ground to excited state transition velocity quadrupole moments (Au):
       state          XX          YY          ZZ          XY          XZ          YZ
         1        -0.0000      0.0000     -0.0000      0.1541      0.0000     -0.0321
         2        -0.1858     -0.0111     -0.0034     -0.0001      0.1388      0.0000
         3        -0.0000     -0.0000      0.0000      0.0262      0.0000      0.0369
 <0|del|b> * <b|rxdel|0> + <0|del|b> * <b|delr+rdel|0>
 Rotatory Strengths (R) in cgs (10**-40 erg-esu-cm/Gauss)
       state          XX          YY          ZZ    R(velocity)    E-M Angle
         1        -0.0054      0.0696     -0.0471      0.0057       90.00
         2         0.0024     -0.0608      0.0486     -0.0033       90.00
         3        -0.0119     -0.0203     -0.0063     -0.0128       90.00
 1/2[<0|r|b>*<b|rxdel|0> + (<0|rxdel|b>*<b|r|0>)*]
 Rotatory Strengths (R) in cgs (10**-40 erg-esu-cm/Gauss)
       state          XX          YY          ZZ     R(length)
         1         0.0033     -0.0022     -0.0022     -0.0004
         2         0.0048      0.0168     -0.0091      0.0042
         3        -0.0343      0.0015      0.0149     -0.0060
  1/2[<0|del|b>*<b|r|0> + (<0|r|b>*<b|del|0>)*] (Au)
       state          X           Y           Z        Dip. S.   Osc.(frdel)
         1        -0.0000     -0.0016      0.0000      0.0016      0.0011
         2         0.0021     -0.0000     -0.0021     -0.0001     -0.0000
         3        -0.0000     -0.0000      0.0000      0.0000      0.0000

 Excitation energies and oscillator strengths:
 
 Excited State   1:      Singlet-A      2.3502 eV  527.54 nm  f=0.0000  <S**2>=0.000
      18 -> 25        -0.11715
      21 -> 25         0.46571
      23 -> 25         0.46356
      24 -> 25         0.16356
 This state for optimization and/or second-order correction.
 Total Energy, E(CIS/TDA) =  -738.263463654    
 Copying the excited state density for this state as the 1-particle RhoCI density.
 
 Excited State   2:      Singlet-A      2.9761 eV  416.60 nm  f=0.0007  <S**2>=0.000
      19 -> 25        -0.12637
      20 -> 25         0.23965
      22 -> 25         0.63810
 
 Excited State   3:      Singlet-A      4.0219 eV  308.27 nm  f=0.0000  <S**2>=0.000
      18 -> 25         0.36724
      21 -> 25         0.44610
      23 -> 25        -0.33574
 SavETr:  write IOETrn=   770 NScale= 10 NData=  16 NLR=1 NState=    3 LETran=      64.
          IDoAtm=11111
          Differentiating once with respect to electric field.
                with respect to dipole field.
          Differentiating once with respect to nuclear coordinates.
 Keep R1 ints in memory in canonical form, NReq=220788045.
          There are     1 degrees of freedom in the 1st order CPHF.  IDoFFX=0 NUNeed=     1.
 LinEq1:  Iter=  0 NonCon=     1 RMS=2.56D-03 Max=3.44D-02 NDo=     1
 AX will form     1 AO Fock derivatives at one time.
 LinEq1:  Iter=  1 NonCon=     1 RMS=1.16D-03 Max=3.19D-02 NDo=     1
 LinEq1:  Iter=  2 NonCon=     1 RMS=3.89D-04 Max=4.58D-03 NDo=     1
 LinEq1:  Iter=  3 NonCon=     1 RMS=1.56D-04 Max=4.74D-03 NDo=     1
 LinEq1:  Iter=  4 NonCon=     1 RMS=4.58D-05 Max=8.40D-04 NDo=     1
 LinEq1:  Iter=  5 NonCon=     1 RMS=1.23D-05 Max=1.94D-04 NDo=     1
 LinEq1:  Iter=  6 NonCon=     1 RMS=5.65D-06 Max=1.01D-04 NDo=     1
 LinEq1:  Iter=  7 NonCon=     1 RMS=2.10D-06 Max=6.24D-05 NDo=     1
 LinEq1:  Iter=  8 NonCon=     1 RMS=7.49D-07 Max=2.33D-05 NDo=     1
 LinEq1:  Iter=  9 NonCon=     1 RMS=2.71D-07 Max=6.34D-06 NDo=     1
 LinEq1:  Iter= 10 NonCon=     1 RMS=8.59D-08 Max=1.58D-06 NDo=     1
 LinEq1:  Iter= 11 NonCon=     1 RMS=2.02D-08 Max=2.43D-07 NDo=     1
 LinEq1:  Iter= 12 NonCon=     1 RMS=5.69D-09 Max=8.22D-08 NDo=     1
 LinEq1:  Iter= 13 NonCon=     1 RMS=1.90D-09 Max=3.58D-08 NDo=     1
 LinEq1:  Iter= 14 NonCon=     1 RMS=1.19D-09 Max=2.38D-08 NDo=     1
 LinEq1:  Iter= 15 NonCon=     1 RMS=2.85D-10 Max=6.64D-09 NDo=     1
 LinEq1:  Iter= 16 NonCon=     0 RMS=5.54D-11 Max=8.56D-10 NDo=     1
 Linear equations converged to 1.000D-10 1.000D-09 after    16 iterations.
 End of Minotr F.D. properties file   721 does not exist.
 End of Minotr F.D. properties file   722 does not exist.
 End of Minotr F.D. properties file   788 does not exist.
 Calling FoFJK, ICntrl=  10005127 FMM=F ISym2X=0 I1Cent= 0 IOpClX= 0 NMat=1 NMatS=1 NMatT=0.
 ***** Axes restored to original set *****
 -------------------------------------------------------------------
 Center     Atomic                   Forces (Hartrees/Bohr)
 Number     Number              X              Y              Z
 -------------------------------------------------------------------
      1        7           0.001424266   -0.000000438    0.000944540
      2        8          -0.000291099   -0.000210810   -0.000439391
      3        8          -0.000290030    0.000211325   -0.000437711
      4        8          -0.000657800    0.000000680   -0.000089772
      5       17          -0.000185337   -0.000000757    0.000022335
 -------------------------------------------------------------------
 Cartesian Forces:  Max     0.001424266 RMS     0.000518903

 GradGradGradGradGradGradGradGradGradGradGradGradGradGradGradGradGradGrad
 Berny optimization.
 Using GEDIIS/GDIIS optimizer.
 FormGI is forming the generalized inverse of G from B-inverse, IUseBI=4.
 Internal  Forces:  Max     0.000659266 RMS     0.000342535
 Search for a local minimum.
 Step number   3 out of a maximum of   21
 All quantities printed in internal units (Hartrees-Bohrs-Radians)
 Mixed Optimization -- En-DIIS/RFO-DIIS
 Swapping is turned off.
 Update second derivatives using D2CorX and points    1    2    3
 DE= -1.91D-06 DEPred=-6.41D-06 R= 2.98D-01
 Trust test= 2.98D-01 RLast= 1.44D-02 DXMaxT set to 3.00D-01
 The second derivative matrix:
                          R1        R2        R3        R4        A1
           R1           1.14188
           R2          -0.03871   1.14189
           R3           0.07255   0.07259   0.62858
           R4          -0.03751  -0.03751   0.04222   0.10647
           A1           0.01598   0.01598   0.00010   0.00995   0.24901
           A2          -0.00856  -0.00856   0.00014  -0.00544   0.00057
           A3          -0.00843  -0.00843   0.00032  -0.00533   0.00059
           A4           0.06101   0.06104   0.00392   0.03916  -0.00338
           D1          -0.01252  -0.01254  -0.01266  -0.01398  -0.00029
           D2           0.01125   0.01126   0.00331   0.01092  -0.00074
           D3          -0.01078  -0.01079  -0.00336  -0.01061   0.00070
                          A2        A3        A4        D1        D2
           A2           0.24967
           A3          -0.00034   0.24965
           A4           0.00194   0.00206   0.24001
           D1           0.00042   0.00014  -0.00826   0.07516
           D2           0.00031   0.00046   0.00092  -0.01709   0.03070
           D3          -0.00029  -0.00043  -0.00105   0.01705  -0.00811
                          D3
           D3           0.03071
 ITU=  0  1  0
     Eigenvalues ---    0.02259   0.06723   0.10251   0.24435   0.25000
     Eigenvalues ---    0.25043   0.61309   1.13569   1.18059
 En-DIIS/RFO-DIIS/Sim-DIIS IScMMF=       -3 using points:     3    2
 RFO step:  Lambda=-8.14007779D-06.
 DidBck=T Rises=F RFO-DIIS coefs:    0.55060    0.44940
 Iteration  1 RMS(Cart)=  0.00127914 RMS(Int)=  0.00000313
 Iteration  2 RMS(Cart)=  0.00000287 RMS(Int)=  0.00000141
 Iteration  3 RMS(Cart)=  0.00000000 RMS(Int)=  0.00000141
 Variable       Old X    -DE/DX   Delta X   Delta X   Delta X     New X
                                 (Linear)    (Quad)   (Total)
    R1        2.21606   0.00020   0.00042  -0.00062  -0.00020   2.21586
    R2        2.21606   0.00021   0.00042  -0.00062  -0.00020   2.21586
    R3        2.50600   0.00062  -0.00044   0.00138   0.00094   2.50694
    R4        3.83065   0.00015   0.00309  -0.00466  -0.00157   3.82908
    A1        2.24844   0.00009  -0.00035   0.00085   0.00049   2.24893
    A2        2.01732  -0.00004   0.00019  -0.00041  -0.00021   2.01710
    A3        2.01733  -0.00004   0.00020  -0.00040  -0.00020   2.01712
    A4        1.93140   0.00044  -0.00114   0.00302   0.00188   1.93328
    D1       -3.12526  -0.00066  -0.00471  -0.00300  -0.00772  -3.13298
    D2       -1.57809   0.00029   0.00198   0.00144   0.00341  -1.57468
    D3        1.57761  -0.00028  -0.00209  -0.00117  -0.00325   1.57435
         Item               Value     Threshold  Converged?
 Maximum Force            0.000659     0.000450     NO 
 RMS     Force            0.000343     0.000300     NO 
 Maximum Displacement     0.002550     0.001800     NO 
 RMS     Displacement     0.001279     0.001200     NO 
 Predicted change in Energy=-4.070301D-06
 GradGradGradGradGradGradGradGradGradGradGradGradGradGradGradGradGradGrad

                          Input orientation:                          
 ---------------------------------------------------------------------
 Center     Atomic      Atomic             Coordinates (Angstroms)
 Number     Number       Type             X           Y           Z
 ---------------------------------------------------------------------
      1          7           0        1.026152    0.000074    0.051001
      2          8           0        1.427877   -1.057434   -0.257609
      3          8           0        1.427415    1.057988   -0.256817
      4          8           0       -0.019838   -0.000475    0.866972
      5         17           0       -1.751679   -0.000159   -0.184913
 ---------------------------------------------------------------------
                    Distance matrix (angstroms):
                    1          2          3          4          5
     1  N    0.000000
     2  O    1.172581   0.000000
     3  O    1.172581   2.115423   0.000000
     4  O    1.326614   2.116063   2.116078   0.000000
     5  Cl   2.787830   3.351520   3.351340   2.026261   0.000000
 Stoichiometry    ClNO3
 Framework group  C1[X(ClNO3)]
 Deg. of freedom     9
 Full point group                 C1      NOp   1
 Largest Abelian subgroup         C1      NOp   1
 Largest concise Abelian subgroup C1      NOp   1
                         Standard orientation:                         
 ---------------------------------------------------------------------
 Center     Atomic      Atomic             Coordinates (Angstroms)
 Number     Number       Type             X           Y           Z
 ---------------------------------------------------------------------
      1          7           0        1.024231    0.000014    0.051996
      2          8           0        1.426356   -1.057621   -0.255657
      3          8           0        1.426114    1.057801   -0.255446
      4          8           0       -0.023113   -0.000202    0.866230
      5         17           0       -1.753205    0.000005   -0.188529
 ---------------------------------------------------------------------
 Rotational constants (GHZ):           9.8784931           2.4945114           2.2661281
 Standard basis: 6-311++G(3df,3pd) (5D, 7F)
 There are   233 symmetry adapted cartesian basis functions of A   symmetry.
 There are   203 symmetry adapted basis functions of A   symmetry.
   203 basis functions,   307 primitive gaussians,   233 cartesian basis functions
    24 alpha electrons       24 beta electrons
       nuclear repulsion energy       221.9557604799 Hartrees.
 NAtoms=    5 NActive=    5 NUniq=    5 SFac= 1.00D+00 NAtFMM=   60 NAOKFM=F Big=F
 Integral buffers will be    131072 words long.
 Raffenetti 1 integral format.
 Two-electron integral symmetry is turned on.
 One-electron integrals computed using PRISM.
 NBasis=   203 RedAO= T EigKep=  1.21D-04  NBF=   203
 NBsUse=   203 1.00D-06 EigRej= -1.00D+00 NBFU=   203
 Initial guess from the checkpoint file:  "/localscratch/alrebei.28376401.0/Gau-14109.chk"
 B after Tr=    -0.000000   -0.000000   -0.000000
         Rot=    1.000000    0.000032    0.000028    0.000011 Ang=   0.01 deg.
 Keep R1 ints in memory in canonical form, NReq=220787261.
 LinEq1:  Iter=  0 NonCon=     1 RMS=2.43D-05 Max=5.48D-04 NDo=     1
 AX will form     1 AO Fock derivatives at one time.
 LinEq1:  Iter=  1 NonCon=     1 RMS=2.95D-06 Max=4.75D-05 NDo=     1
 LinEq1:  Iter=  2 NonCon=     1 RMS=9.35D-07 Max=2.98D-05 NDo=     1
 LinEq1:  Iter=  3 NonCon=     1 RMS=4.07D-07 Max=1.76D-05 NDo=     1
 LinEq1:  Iter=  4 NonCon=     1 RMS=1.45D-07 Max=3.05D-06 NDo=     1
 LinEq1:  Iter=  5 NonCon=     1 RMS=7.19D-08 Max=2.02D-06 NDo=     1
 LinEq1:  Iter=  6 NonCon=     1 RMS=2.27D-08 Max=6.45D-07 NDo=     1
 LinEq1:  Iter=  7 NonCon=     1 RMS=7.10D-09 Max=1.81D-07 NDo=     1
 LinEq1:  Iter=  8 NonCon=     0 RMS=2.87D-09 Max=5.01D-08 NDo=     1
 Linear equations converged to 9.269D-09 9.269D-08 after     8 iterations.
     Accept linear search using points  1 and  2.
     Minimum is close to point  2 DX= -2.25D-05 DF=  0.00D+00 DXR=  2.25D-05 DFR=  0.00D+00 which will be used.
 LinEq1:  Iter=  0 NonCon=     1 RMS=2.30D-08 Max=5.75D-07 NDo=     1
 LinEq1:  Iter=  1 NonCon=     1 RMS=1.04D-08 Max=2.54D-07 NDo=     1
 LinEq1:  Iter=  2 NonCon=     1 RMS=3.92D-09 Max=1.04D-07 NDo=     1
 LinEq1:  Iter=  3 NonCon=     1 RMS=2.05D-09 Max=5.85D-08 NDo=     1
 LinEq1:  Iter=  4 NonCon=     1 RMS=8.30D-10 Max=1.49D-08 NDo=     1
 LinEq1:  Iter=  5 NonCon=     1 RMS=2.84D-10 Max=8.20D-09 NDo=     1
 LinEq1:  Iter=  6 NonCon=     1 RMS=1.20D-10 Max=4.05D-09 NDo=     1
 LinEq1:  Iter=  7 NonCon=     1 RMS=3.52D-11 Max=6.38D-10 NDo=     1
 LinEq1:  Iter=  8 NonCon=     0 RMS=1.19D-11 Max=1.70D-10 NDo=     1
 Linear equations converged to 3.806D-11 3.806D-10 after     8 iterations.
 SCF Done:  E(RHF) =  -738.349916078     a.u. after    3 cycles
            Convg  =    0.9487D-08                    19 Fock formations.
              S**2 =  0.0000                  -V/T =  2.0005
 ExpMin= 4.83D-02 ExpMax= 1.06D+05 ExpMxC= 3.62D+03 IAcc=3 IRadAn=         5 AccDes= 0.00D+00
 HarFok:  IExCor=  205 AccDes= 0.00D+00 IRadAn=         5 IDoV=-2 UseB2=F ITyADJ=14
 ICtDFT= 12500011 ScaDFX=  1.000000  1.000000  1.000000  1.000000
 Range of M.O.s used for correlation:    10   203
 NBasis=   203 NAE=    24 NBE=    24 NFC=     9 NFV=     0
 NROrb=    194 NOA=    15 NOB=    15 NVA=   179 NVB=   179

 **** Warning!!: The largest alpha MO coefficient is  0.41649536D+02

 Orbital symmetries:
       Occupied  (A) (A) (A) (A) (A) (A) (A) (A) (A) (A) (A) (A)
                 (A) (A) (A) (A) (A) (A) (A) (A) (A) (A) (A) (A)
       Virtual   (A) (A) (A) (A) (A) (A) (A) (A) (A) (A) (A) (A)
                 (A) (A) (A) (A) (A) (A) (A) (A) (A) (A) (A) (A)
                 (A) (A) (A) (A) (A) (A) (A) (A) (A) (A) (A) (A)
                 (A) (A) (A) (A) (A) (A) (A) (A) (A) (A) (A) (A)
                 (A) (A) (A) (A) (A) (A) (A) (A) (A) (A) (A) (A)
                 (A) (A) (A) (A) (A) (A) (A) (A) (A) (A) (A) (A)
                 (A) (A) (A) (A) (A) (A) (A) (A) (A) (A) (A) (A)
                 (A) (A) (A) (A) (A) (A) (A) (A) (A) (A) (A) (A)
                 (A) (A) (A) (A) (A) (A) (A) (A) (A) (A) (A) (A)
                 (A) (A) (A) (A) (A) (A) (A) (A) (A) (A) (A) (A)
                 (A) (A) (A) (A) (A) (A) (A) (A) (A) (A) (A) (A)
                 (A) (A) (A) (A) (A) (A) (A) (A) (A) (A) (A) (A)
                 (A) (A) (A) (A) (A) (A) (A) (A) (A) (A) (A) (A)
                 (A) (A) (A) (A) (A) (A) (A) (A) (A) (A) (A) (A)
                 (A) (A) (A) (A) (A) (A) (A) (A) (A) (A) (A)
 Generating guess from densities on rwf.
 Convergence on wavefunction:    0.000001000000000
 Iteration     1 Dimension     3 NMult     0 NNew      3
 CISAX will form     3 AO SS matrices at one time.
 Iteration     2 Dimension     6 NMult     3 NNew      3
 Iteration     3 Dimension     9 NMult     6 NNew      3
 Iteration     4 Dimension    12 NMult     9 NNew      3
 Iteration     5 Dimension    15 NMult    12 NNew      3
 Iteration     6 Dimension    18 NMult    15 NNew      3
 Iteration     7 Dimension    21 NMult    18 NNew      3
 Iteration     8 Dimension    23 NMult    21 NNew      2
 Iteration     9 Dimension    25 NMult    23 NNew      2
 Iteration    10 Dimension    27 NMult    25 NNew      2
 Iteration    11 Dimension    29 NMult    27 NNew      2
 Iteration    12 Dimension    30 NMult    29 NNew      1
 Iteration    13 Dimension    31 NMult    30 NNew      1
 ***********************************************************************
 Excited states from <AA,BB:AA,BB> singles matrix:
 ***********************************************************************
 
 Ground to excited state transition densities written to RWF  633
 Ground to excited state transition electric dipole moments (Au):
       state          X           Y           Z        Dip. S.      Osc.
         1        -0.0000      0.0220     -0.0000      0.0005      0.0000
         2         0.0852     -0.0000      0.0435      0.0091      0.0007
         3         0.0001     -0.0085      0.0000      0.0001      0.0000
 Ground to excited state transition velocity dipole moments (Au):
       state          X           Y           Z        Dip. S.      Osc.
         1         0.0000     -0.0730     -0.0000      0.0053      0.0411
         2         0.0251      0.0000     -0.0481      0.0029      0.0179
         3        -0.0000      0.0003      0.0000      0.0000      0.0000
 Ground to excited state transition magnetic dipole moments (Au):
       state          X           Y           Z
         1         0.2250      0.0001     -0.3372
         2        -0.0001      0.8500      0.0002
         3         0.5754      0.0002     -0.7716
 Ground to excited state transition velocity quadrupole moments (Au):
       state          XX          YY          ZZ          XY          XZ          YZ
         1         0.0000      0.0000     -0.0000      0.1542      0.0000     -0.0321
         2        -0.1858     -0.0110     -0.0033     -0.0000      0.1389      0.0000
         3         0.0000     -0.0000      0.0000      0.0262      0.0000      0.0369
 <0|del|b> * <b|rxdel|0> + <0|del|b> * <b|delr+rdel|0>
 Rotatory Strengths (R) in cgs (10**-40 erg-esu-cm/Gauss)
       state          XX          YY          ZZ    R(velocity)    E-M Angle
         1        -0.0035      0.0473     -0.0321      0.0039       90.00
         2         0.0027     -0.0412      0.0339     -0.0015       90.00
         3        -0.0094     -0.0145     -0.0036     -0.0092       90.00
 1/2[<0|r|b>*<b|rxdel|0> + (<0|rxdel|b>*<b|r|0>)*]
 Rotatory Strengths (R) in cgs (10**-40 erg-esu-cm/Gauss)
       state          XX          YY          ZZ     R(length)
         1         0.0025     -0.0015     -0.0018     -0.0003
         2         0.0032      0.0115     -0.0062      0.0029
         3        -0.0234      0.0010      0.0091     -0.0044
  1/2[<0|del|b>*<b|r|0> + (<0|r|b>*<b|del|0>)*] (Au)
       state          X           Y           Z        Dip. S.   Osc.(frdel)
         1        -0.0000     -0.0016      0.0000      0.0016      0.0011
         2         0.0021     -0.0000     -0.0021     -0.0001     -0.0000
         3        -0.0000     -0.0000      0.0000      0.0000      0.0000

 Excitation energies and oscillator strengths:
 
 Excited State   1:      Singlet-A      2.3524 eV  527.06 nm  f=0.0000  <S**2>=0.000
      18 -> 25        -0.11682
      21 -> 25         0.46392
      23 -> 25         0.46523
      24 -> 25         0.16390
 This state for optimization and/or second-order correction.
 Total Energy, E(CIS/TDA) =  -738.263467378    
 Copying the excited state density for this state as the 1-particle RhoCI density.
 
 Excited State   2:      Singlet-A      2.9787 eV  416.24 nm  f=0.0007  <S**2>=0.000
      19 -> 25        -0.12473
      20 -> 25         0.24099
      22 -> 25         0.63784
 
 Excited State   3:      Singlet-A      4.0260 eV  307.96 nm  f=0.0000  <S**2>=0.000
      18 -> 25         0.36647
      21 -> 25         0.44741
      23 -> 25        -0.33464
 SavETr:  write IOETrn=   770 NScale= 10 NData=  16 NLR=1 NState=    3 LETran=      64.
          IDoAtm=11111
          Differentiating once with respect to electric field.
                with respect to dipole field.
          Differentiating once with respect to nuclear coordinates.
 Keep R1 ints in memory in canonical form, NReq=220788045.
          There are     1 degrees of freedom in the 1st order CPHF.  IDoFFX=0 NUNeed=     1.
 LinEq1:  Iter=  0 NonCon=     1 RMS=2.56D-03 Max=3.44D-02 NDo=     1
 AX will form     1 AO Fock derivatives at one time.
 LinEq1:  Iter=  1 NonCon=     1 RMS=1.15D-03 Max=3.17D-02 NDo=     1
 LinEq1:  Iter=  2 NonCon=     1 RMS=3.88D-04 Max=4.57D-03 NDo=     1
 LinEq1:  Iter=  3 NonCon=     1 RMS=1.56D-04 Max=4.77D-03 NDo=     1
 LinEq1:  Iter=  4 NonCon=     1 RMS=4.59D-05 Max=8.42D-04 NDo=     1
 LinEq1:  Iter=  5 NonCon=     1 RMS=1.24D-05 Max=1.95D-04 NDo=     1
 LinEq1:  Iter=  6 NonCon=     1 RMS=5.69D-06 Max=1.01D-04 NDo=     1
 LinEq1:  Iter=  7 NonCon=     1 RMS=2.10D-06 Max=6.24D-05 NDo=     1
 LinEq1:  Iter=  8 NonCon=     1 RMS=7.47D-07 Max=2.31D-05 NDo=     1
 LinEq1:  Iter=  9 NonCon=     1 RMS=2.70D-07 Max=6.32D-06 NDo=     1
 LinEq1:  Iter= 10 NonCon=     1 RMS=8.59D-08 Max=1.59D-06 NDo=     1
 LinEq1:  Iter= 11 NonCon=     1 RMS=2.02D-08 Max=2.45D-07 NDo=     1
[...]
 Full mass-weighted force constant matrix:
 Low frequencies ---   -6.2964   -4.4512   -3.3703   -0.0053   -0.0035   -0.0016
 Low frequencies ---   62.8361  163.3494  480.7324
 Diagonal vibrational polarizability:
       23.1504188       8.0431923       0.6230447
 Harmonic frequencies (cm**-1), IR intensities (KM/Mole), Raman scattering
 activities (A**4/AMU), depolarization ratios for plane and unpolarized
 incident light, reduced masses (AMU), force constants (mDyne/A),
 and normal coordinates:
                      1                      2                      3
                      A                      A                      A
 Frequencies --     62.8356               163.3494               480.7324
 Red. masses --     17.3142                20.4422                19.3739
 Frc consts  --      0.0403                 0.3214                 2.6380
 IR Inten    --      0.2949                 2.3973                 3.5256
  Atom  AN      X      Y      Z        X      Y      Z        X      Y      Z
     1   7     0.00  -0.13  -0.00    -0.27  -0.00   0.07     0.20  -0.00   0.15
     2   8     0.53   0.00   0.25    -0.44  -0.00  -0.15     0.05   0.03  -0.15
     3   8    -0.53   0.00  -0.25    -0.44   0.00  -0.15     0.05  -0.03  -0.15
     4   8    -0.00  -0.48  -0.00     0.07  -0.00   0.49     0.52   0.00   0.66
     5  17    -0.00   0.27   0.00     0.48   0.00  -0.12    -0.36   0.00  -0.23
                      4                      5                      6
                      A                      A                      A
 Frequencies --    675.0116               786.9484               936.1571
 Red. masses --     15.7703                15.9411                14.4349
 Frc consts  --      4.2336                 5.8165                 7.4535
 IR Inten    --      0.4334                38.9583                 5.8642
  Atom  AN      X      Y      Z        X      Y      Z        X      Y      Z
     1   7    -0.00  -0.34  -0.00     0.15   0.00  -0.15     0.53  -0.00   0.71
     2   8     0.38  -0.17  -0.28    -0.30  -0.35   0.25    -0.17  -0.02  -0.21
     3   8    -0.38  -0.17   0.28    -0.30   0.35   0.25    -0.17   0.02  -0.21
     4   8    -0.00   0.62  -0.00     0.56   0.00  -0.32    -0.12   0.00  -0.24
     5  17     0.00   0.00   0.00    -0.04   0.00  -0.02    -0.00  -0.00   0.01
                      7                      8                      9
                      A                      A                      A
 Frequencies --   1086.0877              1505.8425              1827.4582
 Red. masses --     15.2683                15.1291                14.5961
 Frc consts  --     10.6113                20.2125                28.7198
 IR Inten    --    336.8910               959.4153               745.5406
  Atom  AN      X      Y      Z        X      Y      Z        X      Y      Z
     1   7    -0.49  -0.00   0.36     0.54   0.00  -0.38    -0.00   0.84   0.00
     2   8    -0.01   0.39   0.02    -0.22   0.46   0.16     0.12  -0.35  -0.09
     3   8    -0.01  -0.39   0.02    -0.22  -0.46   0.16    -0.12  -0.35   0.09
     4   8     0.46   0.00  -0.34    -0.02  -0.00   0.02     0.00  -0.03   0.00
     5  17    -0.01   0.00  -0.00    -0.00   0.00  -0.00     0.00  -0.00  -0.00

 -------------------
 - Thermochemistry -
 -------------------
 Temperature   298.150 Kelvin.  Pressure   1.00000 Atm.
 Atom     1 has atomic number  7 and mass  14.00307
 Atom     2 has atomic number  8 and mass  15.99491
 Atom     3 has atomic number  8 and mass  15.99491
 Atom     4 has atomic number  8 and mass  15.99491
 Atom     5 has atomic number 17 and mass  34.96885
 Molecular mass:    96.95667 amu.
 Principal axes and moments of inertia in atomic units:
                           1         2         3
     Eigenvalues --   182.65422 724.27346 797.26530
           X            1.00000   0.00000  -0.00186
           Y           -0.00000   1.00000   0.00000
           Z            0.00186  -0.00000   1.00000
 This molecule is an asymmetric top.
 Rotational symmetry number  1.
 Rotational temperatures (Kelvin)      0.47420     0.11959     0.10864
 Rotational constants (GHZ):           9.88064     2.49180     2.26366
 Zero-point vibrational energy      45006.0 (Joules/Mol)
                                   10.75670 (Kcal/Mol)
 Warning -- explicit consideration of   3 degrees of freedom as
           vibrations may cause significant error
 Vibrational temperatures:     90.41   235.02   691.67   971.19  1132.24
          (Kelvin)           1346.92  1562.64  2166.57  2629.30
 
 Zero-point correction=                           0.017142 (Hartree/Particle)
 Thermal correction to Energy=                    0.021927
 Thermal correction to Enthalpy=                  0.022871
 Thermal correction to Gibbs Free Energy=        -0.012349
 Sum of electronic and zero-point Energies=           -738.246326
 Sum of electronic and thermal Energies=              -738.241541
 Sum of electronic and thermal Enthalpies=            -738.240597
 Sum of electronic and thermal Free Energies=         -738.275817
 
                     E (Thermal)             CV                S
                      KCal/Mol        Cal/Mol-Kelvin    Cal/Mol-Kelvin
 Total                   13.759             13.505             74.126
 Electronic               0.000              0.000              0.000
 Translational            0.889              2.981             39.626
 Rotational               0.889              2.981             26.159
 Vibrational             11.982              7.543              8.341
 Vibration     1          0.597              1.972              4.366
 Vibration     2          0.623              1.887              2.511
 Vibration     3          0.837              1.293              0.708
                       Q            Log10(Q)             Ln(Q)
 Total Bot       0.478639D+06          5.680008         13.078703
 Total V=0       0.367051D+14         13.564727         31.233937
 Vib (Bot)       0.109717D-06         -6.959725        -16.025360
 Vib (Bot)    1  0.328528D+01          0.516573          1.189453
 Vib (Bot)    2  0.123634D+01          0.092137          0.212154
 Vib (Bot)    3  0.347680D+00         -0.458820         -1.056472
 Vib (V=0)       0.841381D+01          0.924993          2.129875
 Vib (V=0)    1  0.382312D+01          0.582417          1.341066
 Vib (V=0)    2  0.183362D+01          0.263309          0.606290
 Vib (V=0)    3  0.110900D+01          0.044932          0.103459
 Electronic      0.100000D+01          0.000000          0.000000
 Translational   0.375250D+08          7.574320         17.440517
 Rotational      0.116255D+06          5.065413         11.663545
 ***** Axes restored to original set *****
 -------------------------------------------------------------------
 Center     Atomic                   Forces (Hartrees/Bohr)
 Number     Number              X              Y              Z
 -------------------------------------------------------------------
      1        7           0.000029720   -0.000002215   -0.000009958
      2        8           0.000013291   -0.000057786   -0.000000117
      3        8           0.000014907    0.000059676    0.000001857
      4        8           0.000001848    0.000000352    0.000013625
      5       17          -0.000059767   -0.000000028   -0.000005408
 -------------------------------------------------------------------
 Cartesian Forces:  Max     0.000059767 RMS     0.000028379
 -------------------------------------------------------------------
 Center     Atomic                Nonadiabatic Coup. (Bohr^-1)
 Number     Number              X              Y              Z
 -------------------------------------------------------------------
      1        7          -0.000021394    0.125775008    0.000059369
      2        8          -0.021360901    0.003304839    0.053955976
      3        8           0.021347699    0.003347640   -0.053943678
      4        8           0.000021043   -0.010864463   -0.000010878
      5       17           0.000000804   -0.048618810   -0.000023674
 -------------------------------------------------------------------
 Cartesian Nonad. Coup.:  Max     0.125775008 RMS     0.040870928
 FormGI is forming the generalized inverse of G from B-inverse, IUseBI=4.

 GradGradGradGradGradGradGradGradGradGradGradGradGradGradGradGradGradGrad
 Berny optimization.
 Internal  Forces:  Max     0.000096025 RMS     0.000045076
 Search for a local minimum.
 Step number   1 out of a maximum of    2
 All quantities printed in internal units (Hartrees-Bohrs-Radians)
 Second derivative matrix not updated -- analytic derivatives used.
 The second derivative matrix:
                          R1        R2        R3        R4        A1
           R1           0.87461
           R2           0.14712   0.87463
           R3           0.09680   0.09680   0.39421
           R4          -0.00057  -0.00057   0.01408   0.11313
           A1           0.04445   0.04446  -0.07768   0.00111   0.25608
           A2           0.02838  -0.07284   0.03884  -0.00055  -0.12803
           A3          -0.07286   0.02837   0.03885  -0.00053  -0.12802
           A4           0.00058   0.00059   0.01557   0.02287  -0.00345
           D1           0.00298   0.00311  -0.00139  -0.00384  -0.00239
           D2          -0.00291   0.00067   0.00027   0.00166   0.00212
           D3          -0.00052   0.00278  -0.00026  -0.00166  -0.00212
                          A2        A3        A4        D1        D2
           A2           0.24201
           A3          -0.11399   0.24201
           A4           0.00173   0.00172   0.11452
           D1           0.00087   0.00100  -0.00099   0.07042
           D2          -0.00611   0.00421   0.00042  -0.03040   0.01565
           D3          -0.00357   0.00547  -0.00040   0.03041  -0.01063
                          D3
           D3           0.01562
 ITU=  0
     Eigenvalues ---    0.00474   0.08999   0.09706   0.13492   0.26534
     Eigenvalues ---    0.33043   0.48195   0.75334   1.05512
 Angle between quadratic step and forces=  39.01 degrees.
 Linear search not attempted -- first point.
 Iteration  1 RMS(Cart)=  0.00059057 RMS(Int)=  0.00000012
 Iteration  2 RMS(Cart)=  0.00000011 RMS(Int)=  0.00000000
 Variable       Old X    -DE/DX   Delta X   Delta X   Delta X     New X
                                 (Linear)    (Quad)   (Total)
    R1        2.21606   0.00006   0.00000   0.00004   0.00004   2.21610
    R2        2.21606   0.00006   0.00000   0.00004   0.00004   2.21610
    R3        2.50743   0.00005   0.00000   0.00009   0.00009   2.50751
    R4        3.83041   0.00005   0.00000   0.00032   0.00032   3.83073
    A1        2.24886   0.00002   0.00000   0.00008   0.00008   2.24893
    A2        2.01714  -0.00001   0.00000  -0.00003  -0.00003   2.01711
    A3        2.01715  -0.00001   0.00000  -0.00005  -0.00005   2.01711
    A4        1.93416   0.00010   0.00000   0.00077   0.00077   1.93492
    D1       -3.13215   0.00001   0.00000   0.00015   0.00015  -3.13200
    D2       -1.57498  -0.00000   0.00000   0.00015   0.00015  -1.57483
    D3        1.57477   0.00001   0.00000   0.00028   0.00028   1.57505
         Item               Value     Threshold  Converged?
 Maximum Force            0.000096     0.000450     YES
 RMS     Force            0.000045     0.000300     YES
 Maximum Displacement     0.001346     0.001800     YES
 RMS     Displacement     0.000591     0.001200     YES
 Predicted change in Energy=-5.308903D-08
 Optimization completed.
    -- Stationary point found.
                           ----------------------------
                           !   Optimized Parameters   !
                           ! (Angstroms and Degrees)  !
 --------------------------                            --------------------------
 ! Name  Definition              Value          Derivative Info.                !
 --------------------------------------------------------------------------------
 ! R1    R(1,2)                  1.1727         -DE/DX =    0.0001              !
 ! R2    R(1,3)                  1.1727         -DE/DX =    0.0001              !
 ! R3    R(1,4)                  1.3269         -DE/DX =    0.0                 !
 ! R4    R(4,5)                  2.027          -DE/DX =    0.0001              !
 ! A1    A(2,1,3)              128.8501         -DE/DX =    0.0                 !
 ! A2    A(2,1,4)              115.5737         -DE/DX =    0.0                 !
 ! A3    A(3,1,4)              115.5742         -DE/DX =    0.0                 !
 ! A4    A(1,4,5)              110.819          -DE/DX =    0.0001              !
 ! D1    D(2,1,3,4)           -179.459          -DE/DX =    0.0                 !
 ! D2    D(2,1,4,5)            -90.2395         -DE/DX =    0.0                 !
 ! D3    D(3,1,4,5)             90.2277         -DE/DX =    0.0                 !
 --------------------------------------------------------------------------------
 GradGradGradGradGradGradGradGradGradGradGradGradGradGradGradGradGradGrad

 -------------------------------------------------------------------
 Center     Atomic                Nonadiabatic Coup. (Bohr^-1)
 Number     Number              X              Y              Z
 -------------------------------------------------------------------
      1        7          -0.000021394    0.125775008    0.000059369
      2        8          -0.021360901    0.003304839    0.053955976
      3        8           0.021347699    0.003347640   -0.053943678
      4        8           0.000021043   -0.010864463   -0.000010878
      5       17           0.000000804   -0.048618810   -0.000023674
 -------------------------------------------------------------------
 Cartesian Nonad. Coup.:  Max     0.125775008 RMS     0.040870928

 ----------------------------------------------------------------------

 Electric dipole moment (input orientation):
 (Debye = 10**-18 statcoulomb cm , SI units = C m)
                  (au)            (Debye)         (10**-30 SI)
   Tot        0.118934D+01      0.302301D+01      0.100837D+02
   x         -0.118913D+01     -0.302248D+01     -0.100819D+02
   y         -0.164939D-03     -0.419234D-03     -0.139841D-02
   z          0.222934D-01      0.566642D-01      0.189012D+00

 Dipole polarizability, Alpha (input orientation).
 (esu units = cm**3 , SI units = C**2 m**2 J**-1)
 Alpha(0;0):
               (au)            (10**-24 esu)      (10**-40 SI)
   iso        0.584523D+02      0.866174D+01      0.963748D+01
   aniso      0.746260D+02      0.110584D+02      0.123042D+02
   xx         0.104486D+03      0.154833D+02      0.172275D+02
   yx         0.803290D-03      0.119035D-03      0.132445D-03
   yy         0.378719D+02      0.561204D+01      0.624424D+01
   zx         0.161573D+02      0.239427D+01      0.266399D+01
   zy         0.347884D-02      0.515511D-03      0.573583D-03
   zz         0.329986D+02      0.488989D+01      0.544073D+01

 ----------------------------------------------------------------------

 Dipole orientation:
     7          0.13231844         -0.00010285         -1.93750757
     8         -0.43558193         -1.99884780         -2.70785803
     8         -0.43459161          1.99902140         -2.70759994
     8          1.63664755         -0.00061465          0.06852779
    17         -0.41096950          0.00004718          3.30570039

 Electric dipole moment (dipole orientation):
 (Debye = 10**-18 statcoulomb cm , SI units = C m)
                  (au)            (Debye)         (10**-30 SI)
   Tot        0.118934D+01      0.302301D+01      0.100837D+02
   x          0.000000D+00      0.000000D+00      0.000000D+00
   y          0.000000D+00      0.000000D+00      0.000000D+00
   z          0.118934D+01      0.302301D+01      0.100837D+02

 Dipole polarizability, Alpha (dipole orientation).
 (esu units = cm**3 , SI units = C**2 m**2 J**-1)
 Alpha(0;0):
               (au)            (10**-24 esu)      (10**-40 SI)
   iso        0.584523D+02      0.866174D+01      0.963748D+01
   aniso      0.746260D+02      0.110584D+02      0.123042D+02
   xx         0.336293D+02      0.498335D+01      0.554473D+01
   yx         0.490905D-03      0.727446D-04      0.809393D-04
   yy         0.378719D+02      0.561204D+01      0.624424D+01
   zx        -0.174858D+02     -0.259112D+01     -0.288301D+01
   zy         0.603284D-02      0.893975D-03      0.994681D-03
   zz         0.103856D+03      0.153898D+02      0.171235D+02

 ----------------------------------------------------------------------
 1\1\GINC-GRA35\Freq\RCIS-FC\6-311++G(3df,3pd)\Cl1N1O3\ALREBEI\24-Feb-2
 020\0\\#N Geom=AllCheck Guess=TCheck SCRF=Check GenChk RCIS(FC,Read)/6
 -311++G(3df,3pd) Freq\\Title Card Required\\0,1\N,1.0264171952,0.00007
 82335,0.0507893099\O,1.4285083817,-1.0575145928,-0.2574656686\O,1.4280
 937112,1.0580665533,-0.2566457547\O,-0.0200228857,-0.0004481651,0.8666
 041014\Cl,-1.7530704024,-0.0001880289,-0.184647988\\Version=ES64L-G16R
 evA.03\State=1-A\HF=-738.3497921\RMSD=9.929e-11\RMSF=2.838e-05\ZeroPoi
 nt=0.0171419\Thermal=0.0219267\Dipole=-1.1891332,-0.0001649,0.0222934\
 DipoleDeriv=2.9694455,-0.0000539,-0.0863512,0.001052,2.6627632,0.00094
 1,-2.2367474,0.0006046,0.307941,-1.1918606,0.3998982,-0.0414961,0.6471
 486,-1.3467119,0.0249994,0.8134052,-0.2956538,-0.1771957,-1.1914431,-0
 .3996868,-0.0417901,-0.6478186,-1.3472565,-0.0259541,0.8127834,0.29497
 09,-0.1769886,-0.8547787,-0.000126,0.071862,-0.0003476,-0.1763613,0.00
 00133,0.5796866,0.0000787,-0.1714779,0.2686369,-0.0000315,0.0977754,-0
 .0000344,0.2075665,0.0000004,0.0308722,-0.0000004,0.2177211\Polar=104.
 4863503,0.0008033,37.8719227,16.1573485,0.0034788,32.9986014\PG=C01 [X
 (Cl1N1O3)]\NImag=0\\0.59669176,-0.00006613,1.21658339,-0.16231358,0.00
 025001,0.46952036,-0.20607256,0.16593861,0.05727022,0.19781080,0.16522
 970,-0.56112689,-0.12019473,-0.22047011,0.74566772,0.05743282,-0.12776
 715,-0.16270059,-0.11376601,0.16672388,0.12983262,-0.20594141,-0.16585
 003,0.05709583,0.05039230,0.00517537,-0.00361994,0.19764152,-0.1651427
 3,-0.56146124,0.11990319,-0.00508551,-0.17603008,0.00552270,0.22035527
 ,0.74611483,0.05725153,0.12747489,-0.16251114,-0.00361835,-0.00569968,
 0.04570590,-0.11352676,-0.16628161,0.12957215,-0.15958838,-0.00002252,
 0.05564589,-0.04416086,0.05029130,0.05808655,-0.04412242,-0.05035107,0
 .05802685,0.31694166,-0.00001990,-0.09294887,0.00004538,0.05799257,-0.
 00817354,-0.04410044,-0.05805398,-0.00828457,0.04412723,0.00007014,0.1
 0845338,0.05126201,0.00004529,-0.14911355,0.05845707,-0.04083934,-0.01
 334266,0.05839517,0.04086645,-0.01327225,-0.12812960,-0.00008474,0.212
 36817,-0.02508941,0.00000008,-0.00769836,0.00203032,-0.00022626,0.0018
 6658,0.00203001,0.00022405,0.00186673,-0.06907001,0.00001118,-0.039984
 64,0.09009909,-0.00000093,-0.00104640,-0.00000386,0.00162444,-0.000337
 21,-0.00037899,-0.00162662,-0.00033895,0.00037917,0.00001215,0.0009536
 0,0.00001234,-0.00000904,0.00076896,-0.00363278,-0.00000305,0.00480493
 ,0.00165707,0.00000987,0.00050473,0.00165571,-0.00001073,0.00050534,-0
 .04362969,0.00001257,-0.03663972,0.04394969,-0.00000866,0.03082472\\-0
 .00002972,0.00000221,0.00000996,-0.00001329,0.00005779,0.00000012,-0.0
 0001491,-0.00005968,-0.00000186,-0.00000185,-0.00000035,-0.00001363,0.
 00005977,0.00000003,0.00000541\\\@


 ACTORS ARE SO FORTUNATE.  THEY CAN CHOOSE WHETHER
 THEY WILL APPEAR IN A TRAGEDY OR IN COMEDY,
 WHETHER THEY WILL SUFFER OF MAKE MERRY,
 LAUGH OR SHED TEARS.  BUT IN REAL LIFE IT IS DIFFERENT.
 MOST MEN AND WOMEN ARE FORCED TO PERFORM
 PARTS FOR WHICH THEY HAVE NO QUALIFICATIONS.
 THE WORLD IS A STAGE, BUT THE PLAY IS BADLY CAST.

                                   -- OSCAR WILDE
 Job cpu time:       0 days  0 hours 13 minutes 10.9 seconds.
 Elapsed time:       0 days  0 hours  6 minutes 41.7 seconds.
 File lengths (MBytes):  RWF=    142 Int=      0 D2E=      0 Chk=      8 Scr=      1
 Normal termination of Gaussian 16 at Mon Feb 24 02:27:41 2020.
