 Entering Gaussian System, Link 0=g16
 Initial command:
 /opt/software/gaussian/g16.a03/l1.exe "/localscratch/alrebei.28335335.0/Gau-28564.inp" -scrdir="/localscratch/alrebei.28335335.0/"
 Entering Link 1 = /opt/software/gaussian/g16.a03/l1.exe PID=     28565.
  
 Copyright (c) 1988,1990,1992,1993,1995,1998,2003,2009,2016,
            Gaussian, Inc.  All Rights Reserved.
  
 This is part of the Gaussian(R) 16 program.  It is based on
 the Gaussian(R) 09 system (copyright 2009, Gaussian, Inc.),
 the Gaussian(R) 03 system (copyright 2003, Gaussian, Inc.),
 the Gaussian(R) 98 system (copyright 1998, Gaussian, Inc.),
 the Gaussian(R) 94 system (copyright 1995, Gaussian, Inc.),
 the Gaussian 92(TM) system (copyright 1992, Gaussian, Inc.),
 the Gaussian 90(TM) system (copyright 1990, Gaussian, Inc.),
 the Gaussian 88(TM) system (copyright 1988, Gaussian, Inc.),
 the Gaussian 86(TM) system (copyright 1986, Carnegie Mellon
 University), and the Gaussian 82(TM) system (copyright 1983,
 Carnegie Mellon University). Gaussian is a federally registered
 trademark of Gaussian, Inc.
  
 This software contains proprietary and confidential information,
 including trade secrets, belonging to Gaussian, Inc.
  
 This software is provided under written license and may be
 used, copied, transmitted, or stored only in accord with that
 written license.
  
 The following legend is applicable only to US Government
 contracts under FAR:
  
                    RESTRICTED RIGHTS LEGEND
  
 Use, reproduction and disclosure by the US Government is
 subject to restrictions as set forth in subparagraphs (a)
 and (c) of the Commercial Computer Software - Restricted
 Rights clause in FAR 52.227-19.
  
 Gaussian, Inc.
 340 Quinnipiac St., Bldg. 40, Wallingford CT 06492
  
  
 ---------------------------------------------------------------
 Warning -- This program may not be used in any manner that
 competes with the business of Gaussian, Inc. or will provide
 assistance to any competitor of Gaussian, Inc.  The licensee
 of this program is prohibited from giving any competitor of
 Gaussian, Inc. access to this program.  By using this program,
 the user acknowledges that Gaussian, Inc. is engaged in the
 business of creating and licensing software in the field of
 computational chemistry and represents and warrants to the
 licensee that it is not a competitor of Gaussian, Inc. and that
 it will not use this program in any manner prohibited above.
 ---------------------------------------------------------------
  

 Cite this work as:
 Gaussian 16, Revision A.03,
 M. J. Frisch, G. W. Trucks, H. B. Schlegel, G. E. Scuseria, 
 M. A. Robb, J. R. Cheeseman, G. Scalmani, V. Barone, 
 G. A. Petersson, H. Nakatsuji, X. Li, M. Caricato, A. V. Marenich, 
 J. Bloino, B. G. Janesko, R. Gomperts, B. Mennucci, H. P. Hratchian, 
 J. V. Ortiz, A. F. Izmaylov, J. L. Sonnenberg, D. Williams-Young, 
 F. Ding, F. Lipparini, F. Egidi, J. Goings, B. Peng, A. Petrone, 
 T. Henderson, D. Ranasinghe, V. G. Zakrzewski, J. Gao, N. Rega, 
 G. Zheng, W. Liang, M. Hada, M. Ehara, K. Toyota, R. Fukuda, 
 J. Hasegawa, M. Ishida, T. Nakajima, Y. Honda, O. Kitao, H. Nakai, 
 T. Vreven, K. Throssell, J. A. Montgomery, Jr., J. E. Peralta, 
 F. Ogliaro, M. J. Bearpark, J. J. Heyd, E. N. Brothers, K. N. Kudin, 
 V. N. Staroverov, T. A. Keith, R. Kobayashi, J. Normand, 
 K. Raghavachari, A. P. Rendell, J. C. Burant, S. S. Iyengar, 
 J. Tomasi, M. Cossi, J. M. Millam, M. Klene, C. Adamo, R. Cammi, 
 J. W. Ochterski, R. L. Martin, K. Morokuma, O. Farkas, 
 J. B. Foresman, and D. J. Fox, Gaussian, Inc., Wallingford CT, 2016.
 
 ******************************************
 Gaussian 16:  ES64L-G16RevA.03 25-Dec-2016
                23-Feb-2020 
 ******************************************
 %nprocshared=2
 Will use up to    2 processors via shared memory.
 %mem=2GB
 ----------------------------------------
 # opt freq rcis/6-311++g(3df,3pd) scf=qc
 ----------------------------------------
 1/18=20,19=15,38=1/1,3;
 2/9=110,12=2,17=6,18=5,40=1/2;
 3/5=4,6=6,7=1616,11=1,25=1,30=1,71=1,116=1/1,2,3,8;
 4//1;
 5/5=2,8=3,38=5/8;
 8/6=1,10=2/1;
 9/15=2,42=1/14;
 10/5=4/2;
 6/7=2,8=2,9=2,10=2/1;
 7/12=6,13=5/1,2,3,16;
 1/18=20,19=15/3(2);
 2/9=110/2;
 99//99;
 2/9=110/2;
 3/5=4,6=6,7=1616,11=1,25=1,30=1,71=1,116=1/1,2,3,8;
 4/5=5,16=3,69=1/1;
 5/5=2,8=3,38=5/8;
 8/6=1,10=2/1;
 9/15=2,42=1,49=4/14;
 10/5=4/2;
 7/12=6,13=5/1,2,3,16;
 1/18=20,19=15/3(-8);
 2/9=110/2;
 6/7=2,8=2,9=2,10=2/1;
 99//99;
 -------------------
 Title Card Required
 -------------------
 Symbolic Z-matrix:
 Charge =  0 Multiplicity = 1
 N                    -0.82971   0.       -0.14159 
 O                    -1.5449    1.01739  -0.10623 
 O                    -1.54631  -1.01638  -0.10725 
 O                     0.24198  -0.00127   0.69446 
 Cl                    1.68245   0.00012  -0.16804 
 

 GradGradGradGradGradGradGradGradGradGradGradGradGradGradGradGradGradGrad
 Berny optimization.
 Initialization pass.
                           ----------------------------
                           !    Initial Parameters    !
                           ! (Angstroms and Degrees)  !
 --------------------------                            --------------------------
 ! Name  Definition              Value          Derivative Info.                !
 --------------------------------------------------------------------------------
 ! R1    R(1,2)                  1.2441         estimate D2E/DX2                !
 ! R2    R(1,3)                  1.2441         estimate D2E/DX2                !
 ! R3    R(1,4)                  1.3592         estimate D2E/DX2                !
 ! R4    R(4,5)                  1.679          estimate D2E/DX2                !
 ! A1    A(2,1,3)              109.6448         estimate D2E/DX2                !
 ! A2    A(2,1,4)              115.8831         estimate D2E/DX2                !
 ! A3    A(3,1,4)              115.8753         estimate D2E/DX2                !
 ! A4    A(1,4,5)              111.1297         estimate D2E/DX2                !
 ! D1    D(2,1,3,4)           -133.4961         estimate D2E/DX2                !
 ! D2    D(2,1,4,5)           -114.6315         estimate D2E/DX2                !
 ! D3    D(3,1,4,5)            114.7775         estimate D2E/DX2                !
 --------------------------------------------------------------------------------
 Trust Radius=3.00D-01 FncErr=1.00D-07 GrdErr=1.00D-07 EigMax=2.50D+02 EigMin=1.00D-04
 Number of steps in this run=     21 maximum allowed number of steps=    100.
 GradGradGradGradGradGradGradGradGradGradGradGradGradGradGradGradGradGrad

                          Input orientation:                          
 ---------------------------------------------------------------------
 Center     Atomic      Atomic             Coordinates (Angstroms)
 Number     Number       Type             X           Y           Z
 ---------------------------------------------------------------------
      1          7           0       -0.829709    0.000003   -0.141586
      2          8           0       -1.544897    1.017390   -0.106232
      3          8           0       -1.546305   -1.016382   -0.107248
      4          8           0        0.241983   -0.001270    0.694461
      5         17           0        1.682454    0.000122   -0.168044
 ---------------------------------------------------------------------
                    Distance matrix (angstroms):
                    1          2          3          4          5
     1  N    0.000000
     2  O    1.244114   0.000000
     3  O    1.244077   2.033773   0.000000
     4  O    1.359228   2.207197   2.207071   0.000000
     5  Cl   2.512302   3.384442   3.385537   1.678950   0.000000
 Stoichiometry    ClNO3
 Framework group  C1[X(ClNO3)]
 Deg. of freedom     9
 Full point group                 C1      NOp   1
 Largest Abelian subgroup         C1      NOp   1
 Largest concise Abelian subgroup C1      NOp   1
                         Standard orientation:                         
 ---------------------------------------------------------------------
 Center     Atomic      Atomic             Coordinates (Angstroms)
 Number     Number       Type             X           Y           Z
 ---------------------------------------------------------------------
      1          7           0       -0.829709    0.000003   -0.141586
      2          8           0       -1.544897    1.017390   -0.106232
      3          8           0       -1.546305   -1.016382   -0.107248
      4          8           0        0.241983   -0.001270    0.694461
      5         17           0        1.682454    0.000122   -0.168044
 ---------------------------------------------------------------------
 Rotational constants (GHZ):          11.9122143           2.5877103           2.3073180
 Standard basis: 6-311++G(3df,3pd) (5D, 7F)
 There are   233 symmetry adapted cartesian basis functions of A   symmetry.
 There are   203 symmetry adapted basis functions of A   symmetry.
   203 basis functions,   307 primitive gaussians,   233 cartesian basis functions
    24 alpha electrons       24 beta electrons
       nuclear repulsion energy       227.2351187465 Hartrees.
 NAtoms=    5 NActive=    5 NUniq=    5 SFac= 1.00D+00 NAtFMM=   60 NAOKFM=F Big=F
 Integral buffers will be    131072 words long.
 Raffenetti 1 integral format.
 Two-electron integral symmetry is turned on.
 One-electron integrals computed using PRISM.
 NBasis=   203 RedAO= T EigKep=  2.18D-04  NBF=   203
 NBsUse=   203 1.00D-06 EigRej= -1.00D+00 NBFU=   203
 ExpMin= 4.83D-02 ExpMax= 1.06D+05 ExpMxC= 3.62D+03 IAcc=3 IRadAn=         5 AccDes= 0.00D+00
 Harris functional with IExCor=  205 and IRadAn=       5 diagonalized for initial guess.
 HarFok:  IExCor=  205 AccDes= 0.00D+00 IRadAn=         5 IDoV= 1 UseB2=F ITyADJ=14
 ICtDFT=  3500011 ScaDFX=  1.000000  1.000000  1.000000  1.000000
 FoFCou: FMM=F IPFlag=           0 FMFlag=      100000 FMFlg1=           0
         NFxFlg=           0 DoJE=T BraDBF=F KetDBF=T FulRan=T
         wScrn=  0.000000 ICntrl=       500 IOpCl=  0 I1Cent=   200000004 NGrid=           0
         NMat0=    1 NMatS0=      1 NMatT0=    0 NMatD0=    1 NMtDS0=    0 NMtDT0=    0
 Petite list used in FoFCou.
 Keep R1 ints in memory in canonical form, NReq=220787261.
 Gradient too large for Newton-Raphson -- use scaled steepest descent instead.
     Accept linear search using points  3 and  4.
 Gradient too large for Newton-Raphson -- use scaled steepest descent instead.
 Gradient too large for Newton-Raphson -- use scaled steepest descent instead.
     Accept linear search using points  1 and  2.
 Gradient too large for Newton-Raphson -- use scaled steepest descent instead.
     Minimum is close to point  3 DX=  1.57D-02 DF= -6.71D-08 DXR=  1.04D-02 DFR=  1.08D-04 which will be used.
 Gradient too large for Newton-Raphson -- use scaled steepest descent instead.
     Accept linear search using points  1 and  2.
 LinEq1:  Iter=  0 NonCon=     1 RMS=4.02D-05 Max=1.13D-03 NDo=     1
 AX will form     1 AO Fock derivatives at one time.
 LinEq1:  Iter=  1 NonCon=     1 RMS=2.84D-05 Max=8.83D-04 NDo=     1
 LinEq1:  Iter=  2 NonCon=     1 RMS=6.18D-06 Max=2.02D-04 NDo=     1
 LinEq1:  Iter=  3 NonCon=     1 RMS=1.68D-06 Max=3.92D-05 NDo=     1
 LinEq1:  Iter=  4 NonCon=     1 RMS=6.36D-07 Max=1.05D-05 NDo=     1
 LinEq1:  Iter=  5 NonCon=     1 RMS=1.99D-07 Max=3.42D-06 NDo=     1
 LinEq1:  Iter=  6 NonCon=     1 RMS=9.25D-08 Max=2.28D-06 NDo=     1
 LinEq1:  Iter=  7 NonCon=     1 RMS=2.86D-08 Max=4.99D-07 NDo=     1
 LinEq1:  Iter=  8 NonCon=     1 RMS=1.15D-08 Max=2.84D-07 NDo=     1
 LinEq1:  Iter=  9 NonCon=     1 RMS=6.00D-09 Max=1.78D-07 NDo=     1
 LinEq1:  Iter= 10 NonCon=     0 RMS=2.67D-09 Max=5.23D-08 NDo=     1
 Linear equations converged to 9.269D-09 9.269D-08 after    10 iterations.
     Accept linear search using points  1 and  2.
     Minimum is close to point  2 DX= -5.02D-04 DF= -6.71D-12 DXR=  5.02D-04 DFR=  2.53D-07 which will be used.
 LinEq1:  Iter=  0 NonCon=     1 RMS=1.26D-07 Max=3.54D-06 NDo=     1
 LinEq1:  Iter=  1 NonCon=     1 RMS=7.82D-08 Max=1.98D-06 NDo=     1
 LinEq1:  Iter=  2 NonCon=     1 RMS=1.81D-08 Max=4.56D-07 NDo=     1
 LinEq1:  Iter=  3 NonCon=     1 RMS=9.01D-09 Max=1.73D-07 NDo=     1
 LinEq1:  Iter=  4 NonCon=     1 RMS=3.51D-09 Max=7.39D-08 NDo=     1
 LinEq1:  Iter=  5 NonCon=     1 RMS=1.40D-09 Max=3.28D-08 NDo=     1
 LinEq1:  Iter=  6 NonCon=     1 RMS=5.21D-10 Max=1.36D-08 NDo=     1
 LinEq1:  Iter=  7 NonCon=     1 RMS=1.92D-10 Max=3.80D-09 NDo=     1
 LinEq1:  Iter=  8 NonCon=     1 RMS=8.46D-11 Max=3.21D-09 NDo=     1
 LinEq1:  Iter=  9 NonCon=     0 RMS=4.98D-11 Max=9.36D-10 NDo=     1
 Linear equations converged to 1.729D-10 1.729D-09 after     9 iterations.
 SCF Done:  E(RHF) =  -738.315599306     a.u. after    8 cycles
            Convg  =    0.2708D-07                    37 Fock formations.
              S**2 =  0.0000                  -V/T =  2.0005
 ExpMin= 4.83D-02 ExpMax= 1.06D+05 ExpMxC= 3.62D+03 IAcc=3 IRadAn=         5 AccDes= 0.00D+00
 HarFok:  IExCor=  205 AccDes= 0.00D+00 IRadAn=         5 IDoV=-2 UseB2=F ITyADJ=14
 ICtDFT= 12500011 ScaDFX=  1.000000  1.000000  1.000000  1.000000
 Range of M.O.s used for correlation:    10   203
 NBasis=   203 NAE=    24 NBE=    24 NFC=     9 NFV=     0
 NROrb=    194 NOA=    15 NOB=    15 NVA=   179 NVB=   179

 **** Warning!!: The largest alpha MO coefficient is  0.18860481D+02

 Orbital symmetries:
       Occupied  (A) (A) (A) (A) (A) (A) (A) (A) (A) (A) (A) (A)
                 (A) (A) (A) (A) (A) (A) (A) (A) (A) (A) (A) (A)
       Virtual   (A) (A) (A) (A) (A) (A) (A) (A) (A) (A) (A) (A)
                 (A) (A) (A) (A) (A) (A) (A) (A) (A) (A) (A) (A)
                 (A) (A) (A) (A) (A) (A) (A) (A) (A) (A) (A) (A)
                 (A) (A) (A) (A) (A) (A) (A) (A) (A) (A) (A) (A)
                 (A) (A) (A) (A) (A) (A) (A) (A) (A) (A) (A) (A)
                 (A) (A) (A) (A) (A) (A) (A) (A) (A) (A) (A) (A)
                 (A) (A) (A) (A) (A) (A) (A) (A) (A) (A) (A) (A)
                 (A) (A) (A) (A) (A) (A) (A) (A) (A) (A) (A) (A)
                 (A) (A) (A) (A) (A) (A) (A) (A) (A) (A) (A) (A)
                 (A) (A) (A) (A) (A) (A) (A) (A) (A) (A) (A) (A)
                 (A) (A) (A) (A) (A) (A) (A) (A) (A) (A) (A) (A)
                 (A) (A) (A) (A) (A) (A) (A) (A) (A) (A) (A) (A)
                 (A) (A) (A) (A) (A) (A) (A) (A) (A) (A) (A) (A)
                 (A) (A) (A) (A) (A) (A) (A) (A) (A) (A) (A) (A)
                 (A) (A) (A) (A) (A) (A) (A) (A) (A) (A) (A)
    12 initial guesses have been made.
 Convergence on wavefunction:    0.000001000000000
 Iteration     1 Dimension    12 NMult     0 NNew     12
 CISAX will form    12 AO SS matrices at one time.
 New state      1 was old state      2
 New state      2 was old state      6
 New state      3 was old state      9
 Iteration     2 Dimension    24 NMult    12 NNew     12
 New state      2 was old state      5
 New state      3 was old state      2
 Iteration     3 Dimension    27 NMult    24 NNew      3
 Iteration     4 Dimension    30 NMult    27 NNew      3
 Iteration     5 Dimension    33 NMult    30 NNew      3
 Iteration     6 Dimension    36 NMult    33 NNew      3
 Iteration     7 Dimension    39 NMult    36 NNew      3
 Iteration     8 Dimension    42 NMult    39 NNew      3
 Iteration     9 Dimension    45 NMult    42 NNew      3
 Iteration    10 Dimension    47 NMult    45 NNew      2
 Iteration    11 Dimension    48 NMult    47 NNew      1
 Iteration    12 Dimension    49 NMult    48 NNew      1
 Iteration    13 Dimension    50 NMult    49 NNew      1
 Iteration    14 Dimension    51 NMult    50 NNew      1
 ***********************************************************************
 Excited states from <AA,BB:AA,BB> singles matrix:
 ***********************************************************************
 
 Ground to excited state transition densities written to RWF  633
 Ground to excited state transition electric dipole moments (Au):
       state          X           Y           Z        Dip. S.      Osc.
         1         0.0001      0.1169      0.0001      0.0137      0.0009
         2         0.0011      1.0586      0.0006      1.1207      0.1277
         3        -0.2576      0.0025     -0.0094      0.0664      0.0078
 Ground to excited state transition velocity dipole moments (Au):
       state          X           Y           Z        Dip. S.      Osc.
         1         0.0000      0.0450      0.0000      0.0020      0.0143
         2        -0.0000      0.1226      0.0001      0.0150      0.0587
         3         0.0538      0.0004      0.0001      0.0029      0.0110
 Ground to excited state transition magnetic dipole moments (Au):
       state          X           Y           Z
         1         0.6400     -0.0005      0.0911
         2         0.0696      0.0026     -0.2848
         3        -0.0015     -1.0147     -0.0018
 Ground to excited state transition velocity quadrupole moments (Au):
       state          XX          YY          ZZ          XY          XZ          YZ
         1        -0.0002      0.0001     -0.0000     -0.0684     -0.0000     -0.0256
         2         0.0001      0.0001     -0.0000     -0.0979      0.0001     -0.0473
         3        -0.1185     -0.0076      0.0031      0.0003     -0.0964     -0.0001
 <0|del|b> * <b|rxdel|0> + <0|del|b> * <b|delr+rdel|0>
 Rotatory Strengths (R) in cgs (10**-40 erg-esu-cm/Gauss)
       state          XX          YY          ZZ    R(velocity)    E-M Angle
         1        -0.0752      0.1188      0.0186      0.0207       90.00
         2         0.5777     -0.0287      0.7005      0.4165       89.52
         3        -0.7289     -0.1759     -1.0383     -0.6477       90.51
 1/2[<0|r|b>*<b|rxdel|0> + (<0|rxdel|b>*<b|r|0>)*]
 Rotatory Strengths (R) in cgs (10**-40 erg-esu-cm/Gauss)
       state          XX          YY          ZZ     R(length)
         1        -0.0296      0.0415     -0.0037      0.0027
         2        -0.0529     -1.9798      0.1204     -0.6374
         3        -0.2785      1.7934     -0.0116      0.5011
  1/2[<0|del|b>*<b|r|0> + (<0|r|b>*<b|del|0>)*] (Au)
       state          X           Y           Z        Dip. S.   Osc.(frdel)
         1         0.0000      0.0053      0.0000     -0.0053     -0.0035
         2        -0.0000      0.1298      0.0000     -0.1298     -0.0865
         3        -0.0139      0.0000     -0.0000      0.0139      0.0092

 Excitation energies and oscillator strengths:
 
 Excited State   1:      Singlet-A      2.5762 eV  481.27 nm  f=0.0009  <S**2>=0.000
      22 -> 25        -0.40153
      23 -> 25         0.52587
      24 -> 25         0.17805
 This state for optimization and/or second-order correction.
 Total Energy, E(CIS/TDA) =  -738.220926854    
 Copying the excited state density for this state as the 1-particle RhoCI density.
 
 Excited State   2:      Singlet-A      4.6507 eV  266.59 nm  f=0.1277  <S**2>=0.000
      18 -> 25         0.12563
      23 -> 25        -0.15818
      23 -> 26        -0.11530
      24 -> 25         0.61979
 
 Excited State   3:      Singlet-A      4.7677 eV  260.05 nm  f=0.0078  <S**2>=0.000
      20 -> 25         0.55040
      21 -> 25        -0.39917
 SavETr:  write IOETrn=   770 NScale= 10 NData=  16 NLR=1 NState=    3 LETran=      64.
          IDoAtm=11111
          Differentiating once with respect to electric field.
                with respect to dipole field.
          Differentiating once with respect to nuclear coordinates.
 Keep R1 ints in memory in canonical form, NReq=220788045.
          There are     1 degrees of freedom in the 1st order CPHF.  IDoFFX=0 NUNeed=     1.
 LinEq1:  Iter=  0 NonCon=     1 RMS=8.17D-03 Max=1.98D-01 NDo=     1
 AX will form     1 AO Fock derivatives at one time.
 LinEq1:  Iter=  1 NonCon=     1 RMS=3.64D-03 Max=6.04D-02 NDo=     1
 LinEq1:  Iter=  2 NonCon=     1 RMS=6.96D-04 Max=9.16D-03 NDo=     1
 LinEq1:  Iter=  3 NonCon=     1 RMS=2.68D-04 Max=4.20D-03 NDo=     1
 LinEq1:  Iter=  4 NonCon=     1 RMS=1.22D-04 Max=3.52D-03 NDo=     1
 LinEq1:  Iter=  5 NonCon=     1 RMS=5.20D-05 Max=1.18D-03 NDo=     1
 LinEq1:  Iter=  6 NonCon=     1 RMS=1.76D-05 Max=3.85D-04 NDo=     1
 LinEq1:  Iter=  7 NonCon=     1 RMS=5.00D-06 Max=1.06D-04 NDo=     1
 LinEq1:  Iter=  8 NonCon=     1 RMS=1.49D-06 Max=3.57D-05 NDo=     1
 LinEq1:  Iter=  9 NonCon=     1 RMS=3.25D-07 Max=3.96D-06 NDo=     1
 LinEq1:  Iter= 10 NonCon=     1 RMS=9.73D-08 Max=2.57D-06 NDo=     1
 LinEq1:  Iter= 11 NonCon=     1 RMS=5.39D-08 Max=1.80D-06 NDo=     1
 LinEq1:  Iter= 12 NonCon=     1 RMS=2.08D-08 Max=3.73D-07 NDo=     1
 LinEq1:  Iter= 13 NonCon=     1 RMS=5.89D-09 Max=1.30D-07 NDo=     1
 LinEq1:  Iter= 14 NonCon=     1 RMS=1.53D-09 Max=2.95D-08 NDo=     1
 LinEq1:  Iter= 15 NonCon=     1 RMS=4.31D-10 Max=8.35D-09 NDo=     1
 LinEq1:  Iter= 16 NonCon=     1 RMS=1.34D-10 Max=3.88D-09 NDo=     1
 LinEq1:  Iter= 17 NonCon=     1 RMS=4.22D-11 Max=1.15D-09 NDo=     1
 LinEq1:  Iter= 18 NonCon=     0 RMS=9.24D-12 Max=9.78D-11 NDo=     1
 Linear equations converged to 1.000D-10 1.000D-09 after    18 iterations.
 End of Minotr F.D. properties file   721 does not exist.
 End of Minotr F.D. properties file   722 does not exist.
 End of Minotr F.D. properties file   788 does not exist.

 **********************************************************************

            Population analysis using the SCF density.

 **********************************************************************

 Orbital symmetries:
       Occupied  (A) (A) (A) (A) (A) (A) (A) (A) (A) (A) (A) (A)
                 (A) (A) (A) (A) (A) (A) (A) (A) (A) (A) (A) (A)
       Virtual   (A) (A) (A) (A) (A) (A) (A) (A) (A) (A) (A) (A)
                 (A) (A) (A) (A) (A) (A) (A) (A) (A) (A) (A) (A)
                 (A) (A) (A) (A) (A) (A) (A) (A) (A) (A) (A) (A)
                 (A) (A) (A) (A) (A) (A) (A) (A) (A) (A) (A) (A)
                 (A) (A) (A) (A) (A) (A) (A) (A) (A) (A) (A) (A)
                 (A) (A) (A) (A) (A) (A) (A) (A) (A) (A) (A) (A)
                 (A) (A) (A) (A) (A) (A) (A) (A) (A) (A) (A) (A)
                 (A) (A) (A) (A) (A) (A) (A) (A) (A) (A) (A) (A)
                 (A) (A) (A) (A) (A) (A) (A) (A) (A) (A) (A) (A)
                 (A) (A) (A) (A) (A) (A) (A) (A) (A) (A) (A) (A)
                 (A) (A) (A) (A) (A) (A) (A) (A) (A) (A) (A) (A)
                 (A) (A) (A) (A) (A) (A) (A) (A) (A) (A) (A) (A)
                 (A) (A) (A) (A) (A) (A) (A) (A) (A) (A) (A) (A)
                 (A) (A) (A) (A) (A) (A) (A) (A) (A) (A) (A) (A)
                 (A) (A) (A) (A) (A) (A) (A) (A) (A) (A) (A)
 The electronic state is 1-A.
 Alpha  occ. eigenvalues -- -104.95512 -20.75687 -20.64225 -20.64218 -15.92872
 Alpha  occ. eigenvalues --  -10.67618  -8.14442  -8.14035  -8.14008  -1.68615
 Alpha  occ. eigenvalues --   -1.49469  -1.40091  -1.15805  -0.95256  -0.81418
 Alpha  occ. eigenvalues --   -0.79298  -0.78619  -0.67269  -0.64545  -0.58870
 Alpha  occ. eigenvalues --   -0.52767  -0.52276  -0.49709  -0.46470
 Alpha virt. eigenvalues --   -0.01934   0.02524   0.07669   0.10370   0.11192
 Alpha virt. eigenvalues --    0.13580   0.15101   0.16258   0.17546   0.23782
 Alpha virt. eigenvalues --    0.24736   0.25295   0.28442   0.28623   0.31687
 Alpha virt. eigenvalues --    0.32368   0.33111   0.36129   0.37162   0.37817
 Alpha virt. eigenvalues --    0.42882   0.43705   0.44267   0.45473   0.46074
 Alpha virt. eigenvalues --    0.47259   0.48911   0.51739   0.53474   0.57242
 Alpha virt. eigenvalues --    0.58232   0.61046   0.63610   0.76789   0.81884
 Alpha virt. eigenvalues --    0.84530   0.91324   0.96723   0.98931   0.99250
 Alpha virt. eigenvalues --    1.04136   1.06045   1.12101   1.13179   1.16986
 Alpha virt. eigenvalues --    1.17133   1.18741   1.19047   1.21918   1.22393
 Alpha virt. eigenvalues --    1.23756   1.24701   1.27637   1.27711   1.31777
 Alpha virt. eigenvalues --    1.33565   1.34611   1.37624   1.40133   1.42698
 Alpha virt. eigenvalues --    1.44802   1.45243   1.57598   1.59993   1.62359
 Alpha virt. eigenvalues --    1.66459   1.68636   1.78200   1.80386   1.92498
 Alpha virt. eigenvalues --    2.05911   2.12626   2.33690   2.34428   2.38527
 Alpha virt. eigenvalues --    2.41877   2.43480   2.48133   2.49739   2.51420
 Alpha virt. eigenvalues --    2.54327   2.55623   2.62491   2.63371   2.66724
 Alpha virt. eigenvalues --    2.69052   2.79677   2.88157   2.97016   3.13202
 Alpha virt. eigenvalues --    3.36786   3.49203   3.50681   3.54456   3.64878
 Alpha virt. eigenvalues --    3.66153   3.78064   3.79205   3.79756   3.80783
 Alpha virt. eigenvalues --    3.91823   3.92994   3.99561   4.08469   4.09253
 Alpha virt. eigenvalues --    4.15693   4.30283   4.34904   4.47124   4.57815
 Alpha virt. eigenvalues --    4.63279   4.73959   4.86197   5.08911   5.14777
 Alpha virt. eigenvalues --    5.27324   5.30610   5.38489   5.39902   5.43011
 Alpha virt. eigenvalues --    5.43657   5.44726   5.47405   5.50691   5.58008
 Alpha virt. eigenvalues --    5.58821   5.60587   5.61662   5.71030   5.71135
 Alpha virt. eigenvalues --    5.75702   5.80018   5.80537   5.90348   5.97434
 Alpha virt. eigenvalues --    5.98710   5.99845   6.02915   6.07931   6.13304
 Alpha virt. eigenvalues --    6.36100   6.39646   6.65180   6.72155   6.82289
 Alpha virt. eigenvalues --    6.83323   6.85091   7.25881   7.76954   8.25321
 Alpha virt. eigenvalues --   10.54890  10.80972  10.85572  10.91845  11.56971
 Alpha virt. eigenvalues --   11.72701  14.91495  14.94663  14.96067  14.96898
 Alpha virt. eigenvalues --   14.97300  14.98421  15.07106  15.12801  15.22871
 Alpha virt. eigenvalues --   15.27425  15.32362  15.34446  15.41641  15.80940
 Alpha virt. eigenvalues --   16.15110  26.64870  26.79891  27.95955  37.22015
 Alpha virt. eigenvalues --   51.81134  51.96859  52.05385 219.41882
          Condensed to atoms (all electrons):
               1          2          3          4          5
     1  N    5.999431  -0.012963  -0.012801  -0.264809  -0.184678
     2  O   -0.012963   8.922029  -0.212409  -0.158248   0.034736
     3  O   -0.012801  -0.212409   8.921655  -0.158262   0.034660
     4  O   -0.264809  -0.158248  -0.158262   9.037297  -0.002360
     5  Cl  -0.184678   0.034736   0.034660  -0.002360  16.993855
 Mulliken charges:
               1
     1  N    1.475819
     2  O   -0.573145
     3  O   -0.572843
     4  O   -0.453618
     5  Cl   0.123787
 Sum of Mulliken charges =   0.00000
 Mulliken charges with hydrogens summed into heavy atoms:
               1
     1  N    1.475819
     2  O   -0.573145
     3  O   -0.572843
     4  O   -0.453618
     5  Cl   0.123787
 Electronic spatial extent (au):  <R**2>=            480.3131
 Charge=              0.0000 electrons
 Dipole moment (field-independent basis, Debye):
    X=              3.2311    Y=             -0.0010    Z=             -0.2546  Tot=              3.2411
 Quadrupole moment (field-independent basis, Debye-Ang):
   XX=            -34.0256   YY=            -37.2804   ZZ=            -32.7553
   XY=              0.0017   XZ=             -1.8165   YZ=             -0.0017
 Traceless Quadrupole moment (field-independent basis, Debye-Ang):
   XX=              0.6615   YY=             -2.5933   ZZ=              1.9318
   XY=              0.0017   XZ=             -1.8165   YZ=             -0.0017
 Octapole moment (field-independent basis, Debye-Ang**2):
  XXX=             14.3291  YYY=             -0.0054  ZZZ=              1.5302  XYY=              2.4060
  XXY=              0.0055  XXZ=             -0.3188  XZZ=             -0.5010  YZZ=              0.0001
  YYZ=              1.2663  XYZ=             -0.0008
 Hexadecapole moment (field-independent basis, Debye-Ang**3):
 XXXX=           -394.6618 YYYY=           -103.1333 ZZZZ=            -46.7110 XXXY=              0.0137
 XXXZ=            -14.5707 YYYX=             -0.0013 YYYZ=             -0.0008 ZZZX=             -0.2592
 ZZZY=             -0.0031 XXYY=            -90.6699 XXZZ=            -73.7104 YYZZ=            -24.9103
 XXYZ=             -0.0083 YYXZ=             -0.8637 ZZXY=              0.0002
 N-N= 2.272351187465D+02 E-N=-2.206952689764D+03  KE= 7.379131658228D+02
 Calling FoFJK, ICntrl=  10005127 FMM=F ISym2X=0 I1Cent= 0 IOpClX= 0 NMat=1 NMatS=1 NMatT=0.
 ***** Axes restored to original set *****
 -------------------------------------------------------------------
 Center     Atomic                   Forces (Hartrees/Bohr)
 Number     Number              X              Y              Z
 -------------------------------------------------------------------
      1        7          -0.008003369    0.000016097    0.005766431
      2        8           0.007163744   -0.009993880   -0.000484907
      3        8           0.007171812    0.009971743   -0.000478704
      4        8           0.005276855    0.000016932   -0.011524401
      5       17          -0.011609042   -0.000010892    0.006721580
 -------------------------------------------------------------------
 Cartesian Forces:  Max     0.011609042 RMS     0.007025878

 GradGradGradGradGradGradGradGradGradGradGradGradGradGradGradGradGradGrad
 Berny optimization.
 FormGI is forming the generalized inverse of G from B-inverse, IUseBI=4.
 Internal  Forces:  Max     0.013412361 RMS     0.007045515
 Search for a local minimum.
 Step number   1 out of a maximum of   21
 All quantities printed in internal units (Hartrees-Bohrs-Radians)
 Mixed Optimization -- RFO/linear search
 Second derivative matrix not updated -- first step.
 The second derivative matrix:
                          R1        R2        R3        R4        A1
           R1           0.85450
           R2           0.00000   0.85464
           R3           0.00000   0.00000   0.53104
           R4           0.00000   0.00000   0.00000   0.38548
           A1           0.00000   0.00000   0.00000   0.00000   0.25000
           A2           0.00000   0.00000   0.00000   0.00000   0.00000
           A3           0.00000   0.00000   0.00000   0.00000   0.00000
           A4           0.00000   0.00000   0.00000   0.00000   0.00000
           D1           0.00000   0.00000   0.00000   0.00000   0.00000
           D2           0.00000   0.00000   0.00000   0.00000   0.00000
           D3           0.00000   0.00000   0.00000   0.00000   0.00000
                          A2        A3        A4        D1        D2
           A2           0.25000
           A3           0.00000   0.25000
           A4           0.00000   0.00000   0.25000
           D1           0.00000   0.00000   0.00000   0.03357
           D2           0.00000   0.00000   0.00000   0.00000   0.01834
           D3           0.00000   0.00000   0.00000   0.00000   0.00000
                          D3
           D3           0.01834
 ITU=  0
     Eigenvalues ---    0.01834   0.05896   0.22079   0.25000   0.25000
     Eigenvalues ---    0.38548   0.53104   0.85450   0.85464
 RFO step:  Lambda=-9.41061827D-04 EMin= 1.83414428D-02
 Linear search not attempted -- first point.
 Iteration  1 RMS(Cart)=  0.01477625 RMS(Int)=  0.00001518
 Iteration  2 RMS(Cart)=  0.00002176 RMS(Int)=  0.00000180
 Iteration  3 RMS(Cart)=  0.00000000 RMS(Int)=  0.00000180
 Variable       Old X    -DE/DX   Delta X   Delta X   Delta X     New X
                                 (Linear)    (Quad)   (Total)
    R1        2.35104  -0.01230   0.00000  -0.01438  -0.01438   2.33665
    R2        2.35096  -0.01229   0.00000  -0.01437  -0.01437   2.33660
    R3        2.56857  -0.00795   0.00000  -0.01494  -0.01494   2.55363
    R4        3.17276  -0.01341   0.00000  -0.03471  -0.03471   3.13805
    A1        1.91366   0.00015   0.00000   0.00153   0.00153   1.91519
    A2        2.02254  -0.00002   0.00000   0.00079   0.00079   2.02333
    A3        2.02240   0.00008   0.00000   0.00104   0.00104   2.02344
    A4        1.93958  -0.00063   0.00000  -0.00251  -0.00251   1.93707
    D1       -2.32995  -0.00020   0.00000  -0.00369  -0.00369  -2.33364
    D2       -2.00070   0.00015   0.00000   0.00206   0.00206  -1.99863
    D3        2.00325  -0.00015   0.00000  -0.00221  -0.00221   2.00103
         Item               Value     Threshold  Converged?
 Maximum Force            0.013412     0.000450     NO 
 RMS     Force            0.007046     0.000300     NO 
 Maximum Displacement     0.038212     0.001800     NO 
 RMS     Displacement     0.014769     0.001200     NO 
 Predicted change in Energy=-4.714168D-04
 GradGradGradGradGradGradGradGradGradGradGradGradGradGradGradGradGradGrad

                          Input orientation:                          
 ---------------------------------------------------------------------
 Center     Atomic      Atomic             Coordinates (Angstroms)
 Number     Number       Type             X           Y           Z
 ---------------------------------------------------------------------
      1          7           0       -0.825774   -0.000033   -0.139423
      2          8           0       -1.535872    1.011696   -0.106227
      3          8           0       -1.537347   -1.010727   -0.107307
      4          8           0        0.240286   -0.001179    0.690990
      5         17           0        1.662233    0.000106   -0.166681
 ---------------------------------------------------------------------
                    Distance matrix (angstroms):
                    1          2          3          4          5
     1  N    0.000000
     2  O    1.236503   0.000000
     3  O    1.236475   2.022424   0.000000
     4  O    1.351322   2.194586   2.194640   0.000000
     5  Cl   2.488156   3.354825   3.355984   1.660583   0.000000
 Stoichiometry    ClNO3
 Framework group  C1[X(ClNO3)]
 Deg. of freedom     9
 Full point group                 C1      NOp   1
 Largest Abelian subgroup         C1      NOp   1
 Largest concise Abelian subgroup C1      NOp   1
                         Standard orientation:                         
 ---------------------------------------------------------------------
 Center     Atomic      Atomic             Coordinates (Angstroms)
 Number     Number       Type             X           Y           Z
 ---------------------------------------------------------------------
      1          7           0       -0.821981   -0.000034   -0.139161
      2          8           0       -1.532047    1.011708   -0.105652
      3          8           0       -1.533549   -1.010715   -0.106539
      4          8           0        0.244557   -0.001114    0.690639
      5         17           0        1.666010    0.000071   -0.167850
 ---------------------------------------------------------------------
 Rotational constants (GHZ):          12.0453776           2.6341802           2.3471008
 Standard basis: 6-311++G(3df,3pd) (5D, 7F)
 There are   233 symmetry adapted cartesian basis functions of A   symmetry.
 There are   203 symmetry adapted basis functions of A   symmetry.
   203 basis functions,   307 primitive gaussians,   233 cartesian basis functions
    24 alpha electrons       24 beta electrons
       nuclear repulsion energy       229.0165655551 Hartrees.
 NAtoms=    5 NActive=    5 NUniq=    5 SFac= 1.00D+00 NAtFMM=   60 NAOKFM=F Big=F
 Integral buffers will be    131072 words long.
 Raffenetti 1 integral format.
 Two-electron integral symmetry is turned on.
 One-electron integrals computed using PRISM.
 NBasis=   203 RedAO= T EigKep=  2.11D-04  NBF=   203
 NBsUse=   203 1.00D-06 EigRej= -1.00D+00 NBFU=   203
 Initial guess from the checkpoint file:  "/localscratch/alrebei.28335335.0/Gau-28565.chk"
 B after Tr=    -0.000000    0.000000   -0.000000
         Rot=    1.000000    0.000048   -0.000333    0.000008 Ang=   0.04 deg.
 ExpMin= 4.83D-02 ExpMax= 1.06D+05 ExpMxC= 3.62D+03 IAcc=2 IRadAn=         4 AccDes= 0.00D+00
 Harris functional with IExCor=  205 and IRadAn=       4 diagonalized for initial guess.
 HarFok:  IExCor=  205 AccDes= 0.00D+00 IRadAn=         4 IDoV= 1 UseB2=F ITyADJ=14
 ICtDFT=  3500011 ScaDFX=  1.000000  1.000000  1.000000  1.000000
 FoFCou: FMM=F IPFlag=           0 FMFlag=      100000 FMFlg1=           0
         NFxFlg=           0 DoJE=T BraDBF=F KetDBF=T FulRan=T
         wScrn=  0.000000 ICntrl=       500 IOpCl=  0 I1Cent=   200000004 NGrid=           0
         NMat0=    1 NMatS0=      1 NMatT0=    0 NMatD0=    1 NMtDS0=    0 NMtDT0=    0
 Petite list used in FoFCou.
 Keep R1 ints in memory in canonical form, NReq=220787261.
 Gradient too large for Newton-Raphson -- use scaled steepest descent instead.
 Gradient too large for Newton-Raphson -- use scaled steepest descent instead.
 Gradient too large for Newton-Raphson -- use scaled steepest descent instead.
 Gradient too large for Newton-Raphson -- use scaled steepest descent instead.
     Accept linear search using points  1 and  2.
 Gradient too large for Newton-Raphson -- use scaled steepest descent instead.
     Accept linear search using points  5 and  6.
 Gradient too large for Newton-Raphson -- use scaled steepest descent instead.
 Gradient too large for Newton-Raphson -- use scaled steepest descent instead.
 Gradient too large for Newton-Raphson -- use scaled steepest descent instead.
     Accept linear search using points  1 and  2.
 LinEq1:  Iter=  0 NonCon=     1 RMS=3.98D-05 Max=6.24D-04 NDo=     1
 AX will form     1 AO Fock derivatives at one time.
 LinEq1:  Iter=  1 NonCon=     1 RMS=9.05D-06 Max=2.40D-04 NDo=     1
 LinEq1:  Iter=  2 NonCon=     1 RMS=5.25D-06 Max=1.28D-04 NDo=     1
 LinEq1:  Iter=  3 NonCon=     1 RMS=1.60D-06 Max=4.05D-05 NDo=     1
 LinEq1:  Iter=  4 NonCon=     1 RMS=5.98D-07 Max=8.53D-06 NDo=     1
 LinEq1:  Iter=  5 NonCon=     1 RMS=2.06D-07 Max=2.49D-06 NDo=     1
 LinEq1:  Iter=  6 NonCon=     1 RMS=9.17D-08 Max=1.57D-06 NDo=     1
 LinEq1:  Iter=  7 NonCon=     1 RMS=2.83D-08 Max=6.79D-07 NDo=     1
 LinEq1:  Iter=  8 NonCon=     1 RMS=8.45D-09 Max=1.49D-07 NDo=     1
 LinEq1:  Iter=  9 NonCon=     0 RMS=2.47D-09 Max=3.69D-08 NDo=     1
 Linear equations converged to 9.269D-09 9.269D-08 after     9 iterations.
     Accept linear search using points  1 and  2.
     Minimum is close to point  2 DX= -7.14D-05 DF= -1.14D-13 DXR=  7.14D-05 DFR=  4.33D-09 which will be used.
 LinEq1:  Iter=  0 NonCon=     1 RMS=2.87D-08 Max=5.59D-07 NDo=     1
 LinEq1:  Iter=  1 NonCon=     1 RMS=1.48D-08 Max=2.37D-07 NDo=     1
 LinEq1:  Iter=  2 NonCon=     1 RMS=3.95D-09 Max=6.84D-08 NDo=     1
 LinEq1:  Iter=  3 NonCon=     1 RMS=2.00D-09 Max=8.00D-08 NDo=     1
 LinEq1:  Iter=  4 NonCon=     1 RMS=9.78D-10 Max=2.01D-08 NDo=     1
 LinEq1:  Iter=  5 NonCon=     1 RMS=4.82D-10 Max=1.19D-08 NDo=     1
 LinEq1:  Iter=  6 NonCon=     1 RMS=1.57D-10 Max=3.26D-09 NDo=     1
 LinEq1:  Iter=  7 NonCon=     1 RMS=8.45D-11 Max=1.41D-09 NDo=     1
 LinEq1:  Iter=  8 NonCon=     1 RMS=4.15D-11 Max=6.47D-10 NDo=     1
 LinEq1:  Iter=  9 NonCon=     0 RMS=1.25D-11 Max=2.00D-10 NDo=     1
 Linear equations converged to 4.039D-11 4.039D-10 after     9 iterations.
 SCF Done:  E(RHF) =  -738.318046691     a.u. after   11 cycles
            Convg  =    0.9134D-08                    49 Fock formations.
              S**2 =  0.0000                  -V/T =  2.0004
 ExpMin= 4.83D-02 ExpMax= 1.06D+05 ExpMxC= 3.62D+03 IAcc=3 IRadAn=         5 AccDes= 0.00D+00
 HarFok:  IExCor=  205 AccDes= 0.00D+00 IRadAn=         5 IDoV=-2 UseB2=F ITyADJ=14
 ICtDFT= 12500011 ScaDFX=  1.000000  1.000000  1.000000  1.000000
 Range of M.O.s used for correlation:    10   203
 NBasis=   203 NAE=    24 NBE=    24 NFC=     9 NFV=     0
 NROrb=    194 NOA=    15 NOB=    15 NVA=   179 NVB=   179

 **** Warning!!: The largest alpha MO coefficient is  0.19593455D+02

 Orbital symmetries:
       Occupied  (A) (A) (A) (A) (A) (A) (A) (A) (A) (A) (A) (A)
                 (A) (A) (A) (A) (A) (A) (A) (A) (A) (A) (A) (A)
       Virtual   (A) (A) (A) (A) (A) (A) (A) (A) (A) (A) (A) (A)
                 (A) (A) (A) (A) (A) (A) (A) (A) (A) (A) (A) (A)
                 (A) (A) (A) (A) (A) (A) (A) (A) (A) (A) (A) (A)
                 (A) (A) (A) (A) (A) (A) (A) (A) (A) (A) (A) (A)
                 (A) (A) (A) (A) (A) (A) (A) (A) (A) (A) (A) (A)
                 (A) (A) (A) (A) (A) (A) (A) (A) (A) (A) (A) (A)
                 (A) (A) (A) (A) (A) (A) (A) (A) (A) (A) (A) (A)
                 (A) (A) (A) (A) (A) (A) (A) (A) (A) (A) (A) (A)
                 (A) (A) (A) (A) (A) (A) (A) (A) (A) (A) (A) (A)
                 (A) (A) (A) (A) (A) (A) (A) (A) (A) (A) (A) (A)
                 (A) (A) (A) (A) (A) (A) (A) (A) (A) (A) (A) (A)
                 (A) (A) (A) (A) (A) (A) (A) (A) (A) (A) (A) (A)
                 (A) (A) (A) (A) (A) (A) (A) (A) (A) (A) (A) (A)
                 (A) (A) (A) (A) (A) (A) (A) (A) (A) (A) (A) (A)
                 (A) (A) (A) (A) (A) (A) (A) (A) (A) (A) (A)
 Generating guess from densities on rwf.
 Convergence on wavefunction:    0.000001000000000
 Iteration     1 Dimension     3 NMult     0 NNew      3
 CISAX will form     3 AO SS matrices at one time.
 Iteration     2 Dimension     6 NMult     3 NNew      3
 Iteration     3 Dimension     9 NMult     6 NNew      3
 Iteration     4 Dimension    12 NMult     9 NNew      3
 Iteration     5 Dimension    15 NMult    12 NNew      3
 Iteration     6 Dimension    18 NMult    15 NNew      3
 Iteration     7 Dimension    21 NMult    18 NNew      3
 Iteration     8 Dimension    24 NMult    21 NNew      3
 Iteration     9 Dimension    27 NMult    24 NNew      3
 Iteration    10 Dimension    29 NMult    27 NNew      2
 Iteration    11 Dimension    31 NMult    29 NNew      2
 Iteration    12 Dimension    33 NMult    31 NNew      2
 Iteration    13 Dimension    34 NMult    33 NNew      1
 Iteration    14 Dimension    35 NMult    34 NNew      1
 ***********************************************************************
 Excited states from <AA,BB:AA,BB> singles matrix:
 ***********************************************************************
 
 Ground to excited state transition densities written to RWF  633
 Ground to excited state transition electric dipole moments (Au):
       state          X           Y           Z        Dip. S.      Osc.
         1         0.0001      0.1169      0.0000      0.0137      0.0009
         2         0.0011      1.0632      0.0005      1.1304      0.1311
         3        -0.2521      0.0028     -0.0074      0.0636      0.0076
 Ground to excited state transition velocity dipole moments (Au):
       state          X           Y           Z        Dip. S.      Osc.
         1         0.0000      0.0445      0.0000      0.0020      0.0137
         2        -0.0000      0.1155      0.0001      0.0133      0.0511
         3         0.0541      0.0003      0.0005      0.0029      0.0109
 Ground to excited state transition magnetic dipole moments (Au):
       state          X           Y           Z
         1         0.6354     -0.0006      0.0837
         2         0.0765      0.0026     -0.2652
         3        -0.0012     -1.0017     -0.0013
 Ground to excited state transition velocity quadrupole moments (Au):
       state          XX          YY          ZZ          XY          XZ          YZ
         1        -0.0002      0.0000     -0.0000     -0.0667     -0.0000     -0.0246
         2         0.0001      0.0000     -0.0000     -0.0943      0.0001     -0.0459
         3        -0.1198     -0.0082      0.0050      0.0001     -0.0932     -0.0001
 <0|del|b> * <b|rxdel|0> + <0|del|b> * <b|delr+rdel|0>
 Rotatory Strengths (R) in cgs (10**-40 erg-esu-cm/Gauss)
       state          XX          YY          ZZ    R(velocity)    E-M Angle
         1        -0.0898      0.1194      0.0096      0.0131       90.00
         2         0.5475     -0.0239      0.6359      0.3865       89.49
         3        -0.5346     -0.1424     -0.7628     -0.4799       90.38
 1/2[<0|r|b>*<b|rxdel|0> + (<0|rxdel|b>*<b|r|0>)*]
 Rotatory Strengths (R) in cgs (10**-40 erg-esu-cm/Gauss)
       state          XX          YY          ZZ     R(length)
         1        -0.0370      0.0496     -0.0029      0.0032
         2        -0.0602     -1.9839      0.0938     -0.6501
         3        -0.2176      1.9624     -0.0066      0.5794
  1/2[<0|del|b>*<b|r|0> + (<0|r|b>*<b|del|0>)*] (Au)
       state          X           Y           Z        Dip. S.   Osc.(frdel)
         1         0.0000      0.0052      0.0000     -0.0052     -0.0035
         2        -0.0000      0.1228      0.0000     -0.1228     -0.0818
         3        -0.0136      0.0000     -0.0000      0.0136      0.0091

 Excitation energies and oscillator strengths:
 
 Excited State   1:      Singlet-A      2.6284 eV  471.71 nm  f=0.0009  <S**2>=0.000
      22 -> 25        -0.41411
      23 -> 25         0.51595
      24 -> 25         0.17798
 This state for optimization and/or second-order correction.
 Total Energy, E(CIS/TDA) =  -738.221455775    
 Copying the excited state density for this state as the 1-particle RhoCI density.
 
 Excited State   2:      Singlet-A      4.7334 eV  261.94 nm  f=0.1311  <S**2>=0.000
      18 -> 25         0.12634
      23 -> 25        -0.16033
      24 -> 25         0.62735
 
 Excited State   3:      Singlet-A      4.8661 eV  254.79 nm  f=0.0076  <S**2>=0.000
      20 -> 25         0.55260
      21 -> 25        -0.39674
 SavETr:  write IOETrn=   770 NScale= 10 NData=  16 NLR=1 NState=    3 LETran=      64.
          IDoAtm=11111
          Differentiating once with respect to electric field.
                with respect to dipole field.
          Differentiating once with respect to nuclear coordinates.
 Keep R1 ints in memory in canonical form, NReq=220788045.
          There are     1 degrees of freedom in the 1st order CPHF.  IDoFFX=0 NUNeed=     1.
 LinEq1:  Iter=  0 NonCon=     1 RMS=8.10D-03 Max=1.93D-01 NDo=     1
 AX will form     1 AO Fock derivatives at one time.
 LinEq1:  Iter=  1 NonCon=     1 RMS=3.57D-03 Max=5.94D-02 NDo=     1
 LinEq1:  Iter=  2 NonCon=     1 RMS=6.79D-04 Max=8.59D-03 NDo=     1
 LinEq1:  Iter=  3 NonCon=     1 RMS=2.59D-04 Max=3.87D-03 NDo=     1
 LinEq1:  Iter=  4 NonCon=     1 RMS=1.16D-04 Max=3.41D-03 NDo=     1
 LinEq1:  Iter=  5 NonCon=     1 RMS=4.93D-05 Max=1.13D-03 NDo=     1
 LinEq1:  Iter=  6 NonCon=     1 RMS=1.67D-05 Max=3.61D-04 NDo=     1
 LinEq1:  Iter=  7 NonCon=     1 RMS=4.67D-06 Max=9.59D-05 NDo=     1
 LinEq1:  Iter=  8 NonCon=     1 RMS=1.40D-06 Max=3.37D-05 NDo=     1
 LinEq1:  Iter=  9 NonCon=     1 RMS=3.18D-07 Max=4.91D-06 NDo=     1
 LinEq1:  Iter= 10 NonCon=     1 RMS=1.31D-07 Max=4.58D-06 NDo=     1
 LinEq1:  Iter= 11 NonCon=     1 RMS=6.70D-08 Max=1.63D-06 NDo=     1
 LinEq1:  Iter= 12 NonCon=     1 RMS=1.92D-08 Max=3.51D-07 NDo=     1
 LinEq1:  Iter= 13 NonCon=     1 RMS=5.30D-09 Max=1.18D-07 NDo=     1
 LinEq1:  Iter= 14 NonCon=     1 RMS=1.35D-09 Max=2.55D-08 NDo=     1
 LinEq1:  Iter= 15 NonCon=     1 RMS=3.75D-10 Max=6.89D-09 NDo=     1
 LinEq1:  Iter= 16 NonCon=     1 RMS=1.16D-10 Max=3.28D-09 NDo=     1
 LinEq1:  Iter= 17 NonCon=     0 RMS=3.59D-11 Max=9.89D-10 NDo=     1
 Linear equations converged to 1.000D-10 1.000D-09 after    17 iterations.
 End of Minotr F.D. properties file   721 does not exist.
 End of Minotr F.D. properties file   722 does not exist.
 End of Minotr F.D. properties file   788 does not exist.
 Calling FoFJK, ICntrl=  10005127 FMM=F ISym2X=0 I1Cent= 0 IOpClX= 0 NMat=1 NMatS=1 NMatT=0.
 ***** Axes restored to original set *****
 -------------------------------------------------------------------
 Center     Atomic                   Forces (Hartrees/Bohr)
 Number     Number              X              Y              Z
 -------------------------------------------------------------------
      1        7          -0.002911879    0.000040171    0.002540523
      2        8           0.000658577   -0.000186172   -0.000645551
      3        8           0.000678729    0.000170994   -0.000626236
      4        8           0.003448971   -0.000020044   -0.003668245
      5       17          -0.001874397   -0.000004949    0.002399509
 -------------------------------------------------------------------
 Cartesian Forces:  Max     0.003668245 RMS     0.001849774

 GradGradGradGradGradGradGradGradGradGradGradGradGradGradGradGradGradGrad
 Berny optimization.
 Using GEDIIS/GDIIS optimizer.
 FormGI is forming the generalized inverse of G from B-inverse, IUseBI=4.
 Internal  Forces:  Max     0.003406353 RMS     0.001432151
 Search for a local minimum.
 Step number   2 out of a maximum of   21
 All quantities printed in internal units (Hartrees-Bohrs-Radians)
 Mixed Optimization -- RFO/linear search
 Update second derivatives using D2CorX and points    1    2
 DE= -5.29D-04 DEPred=-4.71D-04 R= 1.12D+00
 TightC=F SS=  1.41D+00  RLast= 4.33D-02 DXNew= 5.0454D-01 1.2988D-01
 Trust test= 1.12D+00 RLast= 4.33D-02 DXMaxT set to 3.00D-01
 The second derivative matrix:
                          R1        R2        R3        R4        A1
           R1           0.85924
           R2           0.00474   0.85939
           R3           0.01462   0.01461   0.54874
           R4          -0.02624  -0.02620  -0.00655   0.32869
           A1           0.01074   0.01073   0.00734   0.01060   0.25004
           A2           0.00267   0.00267   0.00173   0.00289  -0.00008
           A3           0.00757   0.00756   0.00518   0.00745   0.00004
           A4           0.04863   0.04858   0.03536   0.04216   0.00223
           D1          -0.01164  -0.01163  -0.00821  -0.01077  -0.00030
           D2           0.00718   0.00717   0.00510   0.00655   0.00022
           D3          -0.00725  -0.00724  -0.00515  -0.00662  -0.00022
                          A2        A3        A4        D1        D2
           A2           0.24996
           A3          -0.00005   0.25003
           A4           0.00016   0.00161   0.26909
           D1           0.00002  -0.00022  -0.00352   0.03416
           D2          -0.00000   0.00016   0.00232  -0.00040   0.01861
           D3           0.00000  -0.00016  -0.00233   0.00040  -0.00027
                          D3
           D3           0.01861
 ITU=  1  0
 Use linear search instead of GDIIS.
     Eigenvalues ---    0.01834   0.05732   0.22025   0.23512   0.25000
     Eigenvalues ---    0.35131   0.55090   0.85457   0.87668
 RFO step:  Lambda=-1.11127293D-04 EMin= 1.83414251D-02
 Quartic linear search produced a step of  0.12206.
 Iteration  1 RMS(Cart)=  0.00630643 RMS(Int)=  0.00007033
 Iteration  2 RMS(Cart)=  0.00005327 RMS(Int)=  0.00004684
 Iteration  3 RMS(Cart)=  0.00000000 RMS(Int)=  0.00004684
 Variable       Old X    -DE/DX   Delta X   Delta X   Delta X     New X
                                 (Linear)    (Quad)   (Total)
    R1        2.33665  -0.00055  -0.00176  -0.00063  -0.00239   2.33426
    R2        2.33660  -0.00055  -0.00175  -0.00063  -0.00238   2.33422
    R3        2.55363   0.00046  -0.00182   0.00109  -0.00073   2.55290
    R4        3.13805  -0.00284  -0.00424  -0.00794  -0.01218   3.12587
    A1        1.91519   0.00056   0.00019   0.00711   0.00721   1.92240
    A2        2.02333  -0.00001   0.00010   0.00432   0.00432   2.02765
    A3        2.02344   0.00038   0.00013   0.00528   0.00533   2.02877
    A4        1.93707   0.00341  -0.00031   0.01531   0.01501   1.95208
    D1       -2.33364  -0.00091  -0.00045  -0.01864  -0.01914  -2.35278
    D2       -1.99863   0.00062   0.00025   0.01042   0.01068  -1.98795
    D3        2.00103  -0.00063  -0.00027  -0.01071  -0.01100   1.99003
         Item               Value     Threshold  Converged?
 Maximum Force            0.003406     0.000450     NO 
 RMS     Force            0.001432     0.000300     NO 
 Maximum Displacement     0.012350     0.001800     NO 
 RMS     Displacement     0.006294     0.001200     NO 
 Predicted change in Energy=-6.352308D-05
 GradGradGradGradGradGradGradGradGradGradGradGradGradGradGradGradGradGrad

                          Input orientation:                          
 ---------------------------------------------------------------------
 Center     Atomic      Atomic             Coordinates (Angstroms)
 Number     Number       Type             X           Y           Z
 ---------------------------------------------------------------------
      1          7           0       -0.830404   -0.000215   -0.134706
      2          8           0       -1.536163    1.013170   -0.106948
      3          8           0       -1.538026   -1.012304   -0.108246
      4          8           0        0.243840   -0.000902    0.684454
      5         17           0        1.664279    0.000113   -0.163203
 ---------------------------------------------------------------------
                    Distance matrix (angstroms):
                    1          2          3          4          5
     1  N    0.000000
     2  O    1.235239   0.000000
     3  O    1.235214   2.025475   0.000000
     4  O    1.350935   2.196150   2.196897   0.000000
     5  Cl   2.494846   3.357422   3.358983   1.654137   0.000000
 Stoichiometry    ClNO3
 Framework group  C1[X(ClNO3)]
 Deg. of freedom     9
 Full point group                 C1      NOp   1
 Largest Abelian subgroup         C1      NOp   1
 Largest concise Abelian subgroup C1      NOp   1
                         Standard orientation:                         
 ---------------------------------------------------------------------
 Center     Atomic      Atomic             Coordinates (Angstroms)
 Number     Number       Type             X           Y           Z
 ---------------------------------------------------------------------
      1          7           0       -0.827242   -0.000191   -0.134051
      2          8           0       -1.532854    1.013274   -0.105482
      3          8           0       -1.534916   -1.012200   -0.105976
      4          8           0        0.248407   -0.000659    0.683265
      5         17           0        1.667388   -0.000117   -0.166830
 ---------------------------------------------------------------------
 Rotational constants (GHZ):          12.0733676           2.6311201           2.3414690
 Standard basis: 6-311++G(3df,3pd) (5D, 7F)
 There are   233 symmetry adapted cartesian basis functions of A   symmetry.
 There are   203 symmetry adapted basis functions of A   symmetry.
   203 basis functions,   307 primitive gaussians,   233 cartesian basis functions
    24 alpha electrons       24 beta electrons
       nuclear repulsion energy       229.0850299907 Hartrees.
 NAtoms=    5 NActive=    5 NUniq=    5 SFac= 1.00D+00 NAtFMM=   60 NAOKFM=F Big=F
 Integral buffers will be    131072 words long.
 Raffenetti 1 integral format.
 Two-electron integral symmetry is turned on.
 One-electron integrals computed using PRISM.
 NBasis=   203 RedAO= T EigKep=  2.13D-04  NBF=   203
 NBsUse=   203 1.00D-06 EigRej= -1.00D+00 NBFU=   203
 Initial guess from the checkpoint file:  "/localscratch/alrebei.28335335.0/Gau-28565.chk"
 B after Tr=    -0.000000   -0.000000    0.000000
         Rot=    1.000000    0.000149   -0.000255    0.000042 Ang=   0.03 deg.
 Keep R1 ints in memory in canonical form, NReq=220787261.
 Gradient too large for Newton-Raphson -- use scaled steepest descent instead.
     Minimum is close to point  4 DX=  1.49D-02 DF= -1.09D-08 DXR=  1.22D-02 DFR=  1.50D-04 which will be used.
 Gradient too large for Newton-Raphson -- use scaled steepest descent instead.
 Gradient too large for Newton-Raphson -- use scaled steepest descent instead.
 Gradient too large for Newton-Raphson -- use scaled steepest descent instead.
 Gradient too large for Newton-Raphson -- use scaled steepest descent instead.
     Accept linear search using points  1 and  2.
 LinEq1:  Iter=  0 NonCon=     1 RMS=6.15D-05 Max=1.05D-03 NDo=     1
 AX will form     1 AO Fock derivatives at one time.
 LinEq1:  Iter=  1 NonCon=     1 RMS=1.12D-05 Max=2.09D-04 NDo=     1
 LinEq1:  Iter=  2 NonCon=     1 RMS=6.89D-06 Max=1.61D-04 NDo=     1
 LinEq1:  Iter=  3 NonCon=     1 RMS=2.39D-06 Max=7.40D-05 NDo=     1
 LinEq1:  Iter=  4 NonCon=     1 RMS=8.57D-07 Max=1.98D-05 NDo=     1
 LinEq1:  Iter=  5 NonCon=     1 RMS=3.72D-07 Max=5.82D-06 NDo=     1
 LinEq1:  Iter=  6 NonCon=     1 RMS=1.57D-07 Max=3.31D-06 NDo=     1
 LinEq1:  Iter=  7 NonCon=     1 RMS=4.21D-08 Max=9.08D-07 NDo=     1
 LinEq1:  Iter=  8 NonCon=     1 RMS=1.14D-08 Max=2.34D-07 NDo=     1
 LinEq1:  Iter=  9 NonCon=     1 RMS=5.21D-09 Max=1.67D-07 NDo=     1
 LinEq1:  Iter= 10 NonCon=     0 RMS=2.63D-09 Max=6.20D-08 NDo=     1
 Linear equations converged to 9.269D-09 9.269D-08 after    10 iterations.
     Minimum is close to point  2 DX=  2.33D-04 DF= -3.30D-12 DXR=  2.33D-04 DFR=  5.15D-08 which will be used.
 LinEq1:  Iter=  0 NonCon=     1 RMS=1.12D-07 Max=4.04D-06 NDo=     1
 LinEq1:  Iter=  1 NonCon=     1 RMS=5.08D-08 Max=1.02D-06 NDo=     1
 LinEq1:  Iter=  2 NonCon=     1 RMS=2.13D-08 Max=4.53D-07 NDo=     1
 LinEq1:  Iter=  3 NonCon=     1 RMS=7.13D-09 Max=1.46D-07 NDo=     1
 LinEq1:  Iter=  4 NonCon=     1 RMS=2.71D-09 Max=5.12D-08 NDo=     1
 LinEq1:  Iter=  5 NonCon=     1 RMS=1.29D-09 Max=2.13D-08 NDo=     1
 LinEq1:  Iter=  6 NonCon=     1 RMS=5.78D-10 Max=1.08D-08 NDo=     1
 LinEq1:  Iter=  7 NonCon=     1 RMS=2.35D-10 Max=6.88D-09 NDo=     1
 LinEq1:  Iter=  8 NonCon=     1 RMS=1.36D-10 Max=2.92D-09 NDo=     1
 LinEq1:  Iter=  9 NonCon=     0 RMS=5.08D-11 Max=1.33D-09 NDo=     1
 Linear equations converged to 1.522D-10 1.522D-09 after     9 iterations.
 SCF Done:  E(RHF) =  -738.321544801     a.u. after    8 cycles
            Convg  =    0.1429D-07                    38 Fock formations.
              S**2 =  0.0000                  -V/T =  2.0004
 ExpMin= 4.83D-02 ExpMax= 1.06D+05 ExpMxC= 3.62D+03 IAcc=3 IRadAn=         5 AccDes= 0.00D+00
 HarFok:  IExCor=  205 AccDes= 0.00D+00 IRadAn=         5 IDoV=-2 UseB2=F ITyADJ=14
 ICtDFT= 12500011 ScaDFX=  1.000000  1.000000  1.000000  1.000000
 Range of M.O.s used for correlation:    10   203
 NBasis=   203 NAE=    24 NBE=    24 NFC=     9 NFV=     0
 NROrb=    194 NOA=    15 NOB=    15 NVA=   179 NVB=   179

 **** Warning!!: The largest alpha MO coefficient is  0.19700555D+02

 Orbital symmetries:
       Occupied  (A) (A) (A) (A) (A) (A) (A) (A) (A) (A) (A) (A)
                 (A) (A) (A) (A) (A) (A) (A) (A) (A) (A) (A) (A)
       Virtual   (A) (A) (A) (A) (A) (A) (A) (A) (A) (A) (A) (A)
                 (A) (A) (A) (A) (A) (A) (A) (A) (A) (A) (A) (A)
                 (A) (A) (A) (A) (A) (A) (A) (A) (A) (A) (A) (A)
                 (A) (A) (A) (A) (A) (A) (A) (A) (A) (A) (A) (A)
                 (A) (A) (A) (A) (A) (A) (A) (A) (A) (A) (A) (A)
                 (A) (A) (A) (A) (A) (A) (A) (A) (A) (A) (A) (A)
                 (A) (A) (A) (A) (A) (A) (A) (A) (A) (A) (A) (A)
                 (A) (A) (A) (A) (A) (A) (A) (A) (A) (A) (A) (A)
                 (A) (A) (A) (A) (A) (A) (A) (A) (A) (A) (A) (A)
                 (A) (A) (A) (A) (A) (A) (A) (A) (A) (A) (A) (A)
                 (A) (A) (A) (A) (A) (A) (A) (A) (A) (A) (A) (A)
                 (A) (A) (A) (A) (A) (A) (A) (A) (A) (A) (A) (A)
                 (A) (A) (A) (A) (A) (A) (A) (A) (A) (A) (A) (A)
                 (A) (A) (A) (A) (A) (A) (A) (A) (A) (A) (A) (A)
                 (A) (A) (A) (A) (A) (A) (A) (A) (A) (A) (A)
 Generating guess from densities on rwf.
 Convergence on wavefunction:    0.000001000000000
 Iteration     1 Dimension     3 NMult     0 NNew      3
 CISAX will form     3 AO SS matrices at one time.
 Iteration     2 Dimension     6 NMult     3 NNew      3
 Iteration     3 Dimension     9 NMult     6 NNew      3
 Iteration     4 Dimension    12 NMult     9 NNew      3
 Iteration     5 Dimension    15 NMult    12 NNew      3
 Iteration     6 Dimension    18 NMult    15 NNew      3
 Iteration     7 Dimension    21 NMult    18 NNew      3
 Iteration     8 Dimension    24 NMult    21 NNew      3
 Iteration     9 Dimension    27 NMult    24 NNew      3
 Iteration    10 Dimension    29 NMult    27 NNew      2
 Iteration    11 Dimension    31 NMult    29 NNew      2
 Iteration    12 Dimension    33 NMult    31 NNew      2
 Iteration    13 Dimension    34 NMult    33 NNew      1
 Iteration    14 Dimension    35 NMult    34 NNew      1
 Iteration    15 Dimension    36 NMult    35 NNew      1
 ***********************************************************************
 Excited states from <AA,BB:AA,BB> singles matrix:
 ***********************************************************************
 
 Ground to excited state transition densities written to RWF  633
 Ground to excited state transition electric dipole moments (Au):
       state          X           Y           Z        Dip. S.      Osc.
         1         0.0002      0.1112      0.0000      0.0124      0.0008
         2         0.0019      1.0634      0.0002      1.1308      0.1339
         3        -0.2554      0.0049     -0.0055      0.0653      0.0079
 Ground to excited state transition velocity dipole moments (Au):
       state          X           Y           Z        Dip. S.      Osc.
         1         0.0001      0.0429      0.0000      0.0018      0.0123
         2        -0.0001      0.1143      0.0001      0.0131      0.0491
         3         0.0538      0.0009      0.0000      0.0029      0.0106
 Ground to excited state transition magnetic dipole moments (Au):
       state          X           Y           Z
         1         0.6324     -0.0011      0.0852
         2         0.0596      0.0050     -0.2815
         3        -0.0039     -1.0058     -0.0041
 Ground to excited state transition velocity quadrupole moments (Au):
       state          XX          YY          ZZ          XY          XZ          YZ
         1        -0.0002     -0.0000     -0.0000     -0.0628     -0.0001     -0.0238
         2         0.0004      0.0001     -0.0000     -0.0726      0.0003     -0.0455
         3        -0.1203     -0.0083      0.0072      0.0010     -0.0935     -0.0002
 <0|del|b> * <b|rxdel|0> + <0|del|b> * <b|delr+rdel|0>
 Rotatory Strengths (R) in cgs (10**-40 erg-esu-cm/Gauss)
       state          XX          YY          ZZ    R(velocity)    E-M Angle
         1        -0.1577      0.1298     -0.0391     -0.0223       90.00
         2         1.0303     -0.0277      1.1565      0.7197       89.06
         3        -1.5611     -0.4256     -2.2675     -1.4180       91.16
 1/2[<0|r|b>*<b|rxdel|0> + (<0|rxdel|b>*<b|r|0>)*]
 Rotatory Strengths (R) in cgs (10**-40 erg-esu-cm/Gauss)
       state          XX          YY          ZZ     R(length)
         1        -0.0718      0.0861     -0.0009      0.0045
         2        -0.0781     -3.7276      0.0416     -1.2547
         3        -0.7007      3.5095     -0.0159      0.9309
  1/2[<0|del|b>*<b|r|0> + (<0|r|b>*<b|del|0>)*] (Au)
       state          X           Y           Z        Dip. S.   Osc.(frdel)
         1         0.0000      0.0048      0.0000     -0.0048     -0.0032
         2        -0.0000      0.1216      0.0000     -0.1216     -0.0811
         3        -0.0137      0.0000     -0.0000      0.0137      0.0092

 Excitation energies and oscillator strengths:
 
 Excited State   1:      Singlet-A      2.7225 eV  455.41 nm  f=0.0008  <S**2>=0.000
      22 -> 25        -0.42684
      23 -> 25         0.50812
      24 -> 25         0.16832
 This state for optimization and/or second-order correction.
 Total Energy, E(CIS/TDA) =  -738.221495161    
 Copying the excited state density for this state as the 1-particle RhoCI density.
 
 Excited State   2:      Singlet-A      4.8319 eV  256.59 nm  f=0.1339  <S**2>=0.000
      18 -> 25         0.12397
      23 -> 25        -0.14585
      23 -> 26         0.10888
      24 -> 25         0.62553
 
 Excited State   3:      Singlet-A      4.9452 eV  250.71 nm  f=0.0079  <S**2>=0.000
      20 -> 25         0.55096
      21 -> 25        -0.39816
 SavETr:  write IOETrn=   770 NScale= 10 NData=  16 NLR=1 NState=    3 LETran=      64.
          IDoAtm=11111
          Differentiating once with respect to electric field.
                with respect to dipole field.
          Differentiating once with respect to nuclear coordinates.
 Keep R1 ints in memory in canonical form, NReq=220788045.
          There are     1 degrees of freedom in the 1st order CPHF.  IDoFFX=0 NUNeed=     1.
 LinEq1:  Iter=  0 NonCon=     1 RMS=8.08D-03 Max=1.92D-01 NDo=     1
 AX will form     1 AO Fock derivatives at one time.
 LinEq1:  Iter=  1 NonCon=     1 RMS=3.56D-03 Max=5.94D-02 NDo=     1
 LinEq1:  Iter=  2 NonCon=     1 RMS=6.78D-04 Max=8.41D-03 NDo=     1
 LinEq1:  Iter=  3 NonCon=     1 RMS=2.59D-04 Max=3.82D-03 NDo=     1
 LinEq1:  Iter=  4 NonCon=     1 RMS=1.14D-04 Max=3.26D-03 NDo=     1
 LinEq1:  Iter=  5 NonCon=     1 RMS=4.83D-05 Max=1.11D-03 NDo=     1
 LinEq1:  Iter=  6 NonCon=     1 RMS=1.62D-05 Max=3.55D-04 NDo=     1
 LinEq1:  Iter=  7 NonCon=     1 RMS=4.51D-06 Max=9.79D-05 NDo=     1
 LinEq1:  Iter=  8 NonCon=     1 RMS=1.40D-06 Max=3.32D-05 NDo=     1
 LinEq1:  Iter=  9 NonCon=     1 RMS=4.87D-07 Max=1.68D-05 NDo=     1
 LinEq1:  Iter= 10 NonCon=     1 RMS=2.56D-07 Max=6.32D-06 NDo=     1
 LinEq1:  Iter= 11 NonCon=     1 RMS=7.52D-08 Max=2.01D-06 NDo=     1
 LinEq1:  Iter= 12 NonCon=     1 RMS=1.89D-08 Max=3.54D-07 NDo=     1
 LinEq1:  Iter= 13 NonCon=     1 RMS=5.21D-09 Max=1.16D-07 NDo=     1
 LinEq1:  Iter= 14 NonCon=     1 RMS=1.31D-09 Max=2.55D-08 NDo=     1
 LinEq1:  Iter= 15 NonCon=     1 RMS=3.40D-10 Max=4.03D-09 NDo=     1
 LinEq1:  Iter= 16 NonCon=     1 RMS=8.76D-11 Max=1.16D-09 NDo=     1
 LinEq1:  Iter= 17 NonCon=     0 RMS=2.04D-11 Max=5.46D-10 NDo=     1
 Linear equations converged to 1.000D-10 1.000D-09 after    17 iterations.
 End of Minotr F.D. properties file   721 does not exist.
 End of Minotr F.D. properties file   722 does not exist.
 End of Minotr F.D. properties file   788 does not exist.
 Calling FoFJK, ICntrl=  10005127 FMM=F ISym2X=0 I1Cent= 0 IOpClX= 0 NMat=1 NMatS=1 NMatT=0.
 ***** Axes restored to original set *****
 -------------------------------------------------------------------
 Center     Atomic                   Forces (Hartrees/Bohr)
 Number     Number              X              Y              Z
 -------------------------------------------------------------------
      1        7           0.001557517    0.000157104   -0.001469713
      2        8          -0.000329915    0.000066780    0.000467629
      3        8          -0.000209367   -0.000094674    0.000573079
      4        8          -0.000940496   -0.000121571    0.000780707
      5       17          -0.000077739   -0.000007638   -0.000351702
 -------------------------------------------------------------------
 Cartesian Forces:  Max     0.001557517 RMS     0.000681293

 GradGradGradGradGradGradGradGradGradGradGradGradGradGradGradGradGradGrad
 Berny optimization.
 Using GEDIIS/GDIIS optimizer.
 FormGI is forming the generalized inverse of G from B-inverse, IUseBI=4.
 Internal  Forces:  Max     0.001074898 RMS     0.000517331
 Search for a local minimum.
 Step number   3 out of a maximum of   21
 All quantities printed in internal units (Hartrees-Bohrs-Radians)
 Mixed Optimization -- En-DIIS/RFO-DIIS
 Update second derivatives using D2CorX and points    1    2    3
 DE= -3.94D-05 DEPred=-6.35D-05 R= 6.20D-01
 TightC=F SS=  1.41D+00  RLast= 3.30D-02 DXNew= 5.0454D-01 9.8868D-02
 Trust test= 6.20D-01 RLast= 3.30D-02 DXMaxT set to 3.00D-01
 The second derivative matrix:
                          R1        R2        R3        R4        A1
           R1           0.85627
           R2           0.00119   0.85526
           R3           0.00497   0.00494   0.54472
           R4          -0.03562  -0.03659  -0.02433   0.30354
           A1           0.02742   0.02748   0.01431   0.04300   0.23603
           A2           0.02033   0.02022   0.00661   0.03569  -0.01018
           A3           0.01346   0.01365   0.01001   0.02029  -0.00935
           A4           0.04101   0.04188   0.04533   0.03551  -0.01650
           D1           0.00220   0.00180  -0.00900   0.01216   0.00050
           D2          -0.00548  -0.00520   0.00460  -0.01516   0.00181
           D3           0.00519   0.00491  -0.00467   0.01471  -0.00174
                          A2        A3        A4        D1        D2
           A2           0.24441
           A3          -0.00846   0.24529
           A4          -0.02253  -0.00228   0.29250
           D1           0.00517  -0.00400  -0.02660   0.04614
           D2          -0.00219   0.00436   0.02202  -0.00924   0.02480
           D3           0.00219  -0.00428  -0.02172   0.00912  -0.00639
                          D3
           D3           0.02465
 ITU=  1  1  0
 Use linear search instead of GDIIS.
     Eigenvalues ---    0.01834   0.07135   0.22271   0.23234   0.26579
     Eigenvalues ---    0.33496   0.55370   0.85457   0.86786
 RFO step:  Lambda=-4.61927866D-06 EMin= 1.83407792D-02
 Quartic linear search produced a step of -0.26971.
 Iteration  1 RMS(Cart)=  0.00241892 RMS(Int)=  0.00001044
 Iteration  2 RMS(Cart)=  0.00001017 RMS(Int)=  0.00000147
 Iteration  3 RMS(Cart)=  0.00000000 RMS(Int)=  0.00000147
 Variable       Old X    -DE/DX   Delta X   Delta X   Delta X     New X
                                 (Linear)    (Quad)   (Total)
    R1        2.33426   0.00025   0.00064  -0.00009   0.00055   2.33482
    R2        2.33422   0.00021   0.00064  -0.00013   0.00051   2.33473
    R3        2.55290  -0.00055   0.00020  -0.00057  -0.00038   2.55252
    R4        3.12587   0.00011   0.00329  -0.00253   0.00075   3.12662
    A1        1.92240  -0.00017  -0.00195  -0.00066  -0.00260   1.91980
    A2        2.02765   0.00007  -0.00116  -0.00073  -0.00190   2.02575
    A3        2.02877  -0.00064  -0.00144  -0.00216  -0.00360   2.02517
    A4        1.95208  -0.00107  -0.00405   0.00145  -0.00260   1.94948
    D1       -2.35278   0.00072   0.00516   0.00398   0.00915  -2.34363
    D2       -1.98795  -0.00046  -0.00288  -0.00250  -0.00538  -1.99333
    D3        1.99003   0.00044   0.00297   0.00175   0.00472   1.99475
         Item               Value     Threshold  Converged?
 Maximum Force            0.001075     0.000450     NO 
 RMS     Force            0.000517     0.000300     NO 
 Maximum Displacement     0.005679     0.001800     NO 
 RMS     Displacement     0.002425     0.001200     NO 
 Predicted change in Energy=-8.490511D-06
 GradGradGradGradGradGradGradGradGradGradGradGradGradGradGradGradGradGrad

                          Input orientation:                          
 ---------------------------------------------------------------------
 Center     Atomic      Atomic             Coordinates (Angstroms)
 Number     Number       Type             X           Y           Z
 ---------------------------------------------------------------------
      1          7           0       -0.828978    0.000204   -0.137711
      2          8           0       -1.536581    1.012535   -0.105722
      3          8           0       -1.537362   -1.011559   -0.106860
      4          8           0        0.242682   -0.001112    0.684499
      5         17           0        1.663765   -0.000204   -0.162855
 ---------------------------------------------------------------------
                    Distance matrix (angstroms):
                    1          2          3          4          5
     1  N    0.000000
     2  O    1.235532   0.000000
     3  O    1.235486   2.024094   0.000000
     4  O    1.350736   2.194928   2.194495   0.000000
     5  Cl   2.492870   3.357249   3.357557   1.654535   0.000000
 Stoichiometry    ClNO3
 Framework group  C1[X(ClNO3)]
 Deg. of freedom     9
 Full point group                 C1      NOp   1
 Largest Abelian subgroup         C1      NOp   1
 Largest concise Abelian subgroup C1      NOp   1
                         Standard orientation:                         
 ---------------------------------------------------------------------
 Center     Atomic      Atomic             Coordinates (Angstroms)
 Number     Number       Type             X           Y           Z
 ---------------------------------------------------------------------
      1          7           0       -0.825678    0.000073   -0.137294
      2          8           0       -1.533432    1.012269   -0.104410
      3          8           0       -1.533809   -1.011825   -0.105089
      4          8           0        0.247286   -0.000843    0.683215
      5         17           0        1.667023    0.000158   -0.166392
 ---------------------------------------------------------------------
 Rotational constants (GHZ):          12.0864035           2.6326852           2.3431892
 Standard basis: 6-311++G(3df,3pd) (5D, 7F)
 There are   233 symmetry adapted cartesian basis functions of A   symmetry.
 There are   203 symmetry adapted basis functions of A   symmetry.
   203 basis functions,   307 primitive gaussians,   233 cartesian basis functions
    24 alpha electrons       24 beta electrons
       nuclear repulsion energy       229.1339296512 Hartrees.
 NAtoms=    5 NActive=    5 NUniq=    5 SFac= 1.00D+00 NAtFMM=   60 NAOKFM=F Big=F
 Integral buffers will be    131072 words long.
 Raffenetti 1 integral format.
 Two-electron integral symmetry is turned on.
 One-electron integrals computed using PRISM.
 NBasis=   203 RedAO= T EigKep=  2.12D-04  NBF=   203
 NBsUse=   203 1.00D-06 EigRej= -1.00D+00 NBFU=   203
 Initial guess from the checkpoint file:  "/localscratch/alrebei.28335335.0/Gau-28565.chk"
 B after Tr=     0.000000    0.000000   -0.000000
         Rot=    1.000000   -0.000072    0.000074   -0.000128 Ang=  -0.02 deg.
 Keep R1 ints in memory in canonical form, NReq=220787261.
 LinEq1:  Iter=  0 NonCon=     1 RMS=4.03D-05 Max=6.92D-04 NDo=     1
 AX will form     1 AO Fock derivatives at one time.
 LinEq1:  Iter=  1 NonCon=     1 RMS=6.34D-06 Max=8.26D-05 NDo=     1
 LinEq1:  Iter=  2 NonCon=     1 RMS=3.94D-06 Max=1.08D-04 NDo=     1
 LinEq1:  Iter=  3 NonCon=     1 RMS=1.19D-06 Max=2.03D-05 NDo=     1
 LinEq1:  Iter=  4 NonCon=     1 RMS=5.39D-07 Max=9.92D-06 NDo=     1
 LinEq1:  Iter=  5 NonCon=     1 RMS=2.02D-07 Max=4.36D-06 NDo=     1
 LinEq1:  Iter=  6 NonCon=     1 RMS=1.19D-07 Max=2.89D-06 NDo=     1
 LinEq1:  Iter=  7 NonCon=     1 RMS=4.68D-08 Max=1.33D-06 NDo=     1
 LinEq1:  Iter=  8 NonCon=     1 RMS=2.32D-08 Max=4.36D-07 NDo=     1
 LinEq1:  Iter=  9 NonCon=     1 RMS=1.03D-08 Max=1.70D-07 NDo=     1
 LinEq1:  Iter= 10 NonCon=     0 RMS=3.80D-09 Max=7.89D-08 NDo=     1
 Linear equations converged to 9.269D-09 9.269D-08 after    10 iterations.
     Accept linear search using points  1 and  2.
     Minimum is close to point  2 DX= -8.31D-05 DF= -2.27D-13 DXR=  8.32D-05 DFR=  7.35D-09 which will be used.
 LinEq1:  Iter=  0 NonCon=     1 RMS=4.25D-08 Max=1.39D-06 NDo=     1
 LinEq1:  Iter=  1 NonCon=     1 RMS=2.23D-08 Max=6.67D-07 NDo=     1
 LinEq1:  Iter=  2 NonCon=     1 RMS=9.78D-09 Max=1.47D-07 NDo=     1
 LinEq1:  Iter=  3 NonCon=     1 RMS=3.47D-09 Max=6.45D-08 NDo=     1
 LinEq1:  Iter=  4 NonCon=     1 RMS=1.39D-09 Max=2.78D-08 NDo=     1
 LinEq1:  Iter=  5 NonCon=     1 RMS=6.84D-10 Max=1.36D-08 NDo=     1
 LinEq1:  Iter=  6 NonCon=     1 RMS=2.97D-10 Max=4.65D-09 NDo=     1
 LinEq1:  Iter=  7 NonCon=     1 RMS=1.06D-10 Max=1.98D-09 NDo=     1
 LinEq1:  Iter=  8 NonCon=     1 RMS=3.20D-11 Max=6.69D-10 NDo=     1
 LinEq1:  Iter=  9 NonCon=     0 RMS=1.60D-11 Max=5.56D-10 NDo=     1
 Linear equations converged to 6.124D-11 6.124D-10 after     9 iterations.
 SCF Done:  E(RHF) =  -738.320099908     a.u. after    3 cycles
            Convg  =    0.1981D-07                    22 Fock formations.
              S**2 =  0.0000                  -V/T =  2.0004
 ExpMin= 4.83D-02 ExpMax= 1.06D+05 ExpMxC= 3.62D+03 IAcc=3 IRadAn=         5 AccDes= 0.00D+00
 HarFok:  IExCor=  205 AccDes= 0.00D+00 IRadAn=         5 IDoV=-2 UseB2=F ITyADJ=14
 ICtDFT= 12500011 ScaDFX=  1.000000  1.000000  1.000000  1.000000
 Range of M.O.s used for correlation:    10   203
 NBasis=   203 NAE=    24 NBE=    24 NFC=     9 NFV=     0
 NROrb=    194 NOA=    15 NOB=    15 NVA=   179 NVB=   179

 **** Warning!!: The largest alpha MO coefficient is  0.19665465D+02

 Orbital symmetries:
       Occupied  (A) (A) (A) (A) (A) (A) (A) (A) (A) (A) (A) (A)
                 (A) (A) (A) (A) (A) (A) (A) (A) (A) (A) (A) (A)
       Virtual   (A) (A) (A) (A) (A) (A) (A) (A) (A) (A) (A) (A)
                 (A) (A) (A) (A) (A) (A) (A) (A) (A) (A) (A) (A)
                 (A) (A) (A) (A) (A) (A) (A) (A) (A) (A) (A) (A)
                 (A) (A) (A) (A) (A) (A) (A) (A) (A) (A) (A) (A)
                 (A) (A) (A) (A) (A) (A) (A) (A) (A) (A) (A) (A)
                 (A) (A) (A) (A) (A) (A) (A) (A) (A) (A) (A) (A)
                 (A) (A) (A) (A) (A) (A) (A) (A) (A) (A) (A) (A)
                 (A) (A) (A) (A) (A) (A) (A) (A) (A) (A) (A) (A)
                 (A) (A) (A) (A) (A) (A) (A) (A) (A) (A) (A) (A)
                 (A) (A) (A) (A) (A) (A) (A) (A) (A) (A) (A) (A)
                 (A) (A) (A) (A) (A) (A) (A) (A) (A) (A) (A) (A)
                 (A) (A) (A) (A) (A) (A) (A) (A) (A) (A) (A) (A)
                 (A) (A) (A) (A) (A) (A) (A) (A) (A) (A) (A) (A)
                 (A) (A) (A) (A) (A) (A) (A) (A) (A) (A) (A) (A)
                 (A) (A) (A) (A) (A) (A) (A) (A) (A) (A) (A)
 Generating guess from densities on rwf.
 Convergence on wavefunction:    0.000001000000000
 Iteration     1 Dimension     3 NMult     0 NNew      3
 CISAX will form     3 AO SS matrices at one time.
 Iteration     2 Dimension     6 NMult     3 NNew      3
 Iteration     3 Dimension     9 NMult     6 NNew      3
 Iteration     4 Dimension    12 NMult     9 NNew      3
 Iteration     5 Dimension    15 NMult    12 NNew      3
 Iteration     6 Dimension    18 NMult    15 NNew      3
 Iteration     7 Dimension    21 NMult    18 NNew      3
 Iteration     8 Dimension    24 NMult    21 NNew      3
 Iteration     9 Dimension    27 NMult    24 NNew      3
 Iteration    10 Dimension    29 NMult    27 NNew      2
 Iteration    11 Dimension    31 NMult    29 NNew      2
 Iteration    12 Dimension    33 NMult    31 NNew      2
 Iteration    13 Dimension    35 NMult    33 NNew      2
 Iteration    14 Dimension    37 NMult    35 NNew      2
 Iteration    15 Dimension    38 NMult    37 NNew      1
 ***********************************************************************
 Excited states from <AA,BB:AA,BB> singles matrix:
 ***********************************************************************
 
 Ground to excited state transition densities written to RWF  633
 Ground to excited state transition electric dipole moments (Au):
       state          X           Y           Z        Dip. S.      Osc.
         1         0.0000      0.1135      0.0000      0.0129      0.0008
         2         0.0002      1.0639      0.0004      1.1319      0.1328
         3        -0.2549      0.0005     -0.0060      0.0650      0.0078
 Ground to excited state transition velocity dipole moments (Au):
       state          X           Y           Z        Dip. S.      Osc.
         1         0.0000      0.0436      0.0000      0.0019      0.0129
         2         0.0000      0.1141      0.0000      0.0130      0.0493
         3         0.0541      0.0000      0.0003      0.0029      0.0108
 Ground to excited state transition magnetic dipole moments (Au):
       state          X           Y           Z
         1         0.6336      0.0000      0.0820
         2         0.0717      0.0006     -0.2707
         3         0.0001     -1.0031     -0.0000
 Ground to excited state transition velocity quadrupole moments (Au):
       state          XX          YY          ZZ          XY          XZ          YZ
         1        -0.0000      0.0001     -0.0000     -0.0645     -0.0000     -0.0242
         2         0.0000      0.0000     -0.0000     -0.0844      0.0001     -0.0457
[...]
 activities (A**4/AMU), depolarization ratios for plane and unpolarized
 incident light, reduced masses (AMU), force constants (mDyne/A),
 and normal coordinates:
                      1                      2                      3
                      A                      A                      A
 Frequencies --      1.5849               298.4449               530.6831
 Red. masses --     17.5470                19.5030                17.1462
 Frc consts  --      0.0000                 1.0235                 2.8450
 IR Inten    --      0.0055                 2.2063                 8.4549
  Atom  AN      X      Y      Z        X      Y      Z        X      Y      Z
     1   7     0.00   0.24   0.00    -0.24   0.00  -0.32    -0.01  -0.00   0.48
     2   8    -0.43  -0.08   0.25    -0.35  -0.07   0.23    -0.36  -0.21  -0.27
     3   8     0.43  -0.08  -0.25    -0.35   0.07   0.23    -0.36   0.21  -0.27
     4   8    -0.00   0.60   0.00    -0.00   0.00  -0.52     0.16  -0.00   0.41
     5  17    -0.00  -0.30  -0.00     0.42  -0.00   0.15     0.26   0.00  -0.14
                      4                      5                      6
                      A                      A                      A
 Frequencies --    551.5111               677.1224               920.2440
 Red. masses --     15.7704                15.9341                16.5890
 Frc consts  --      2.8262                 4.3044                 8.2771
 IR Inten    --      6.3944                 0.2014                 9.4076
  Atom  AN      X      Y      Z        X      Y      Z        X      Y      Z
     1   7    -0.00  -0.34  -0.00     0.47   0.00  -0.42    -0.03   0.00  -0.56
     2   8     0.46  -0.15   0.22    -0.11  -0.48   0.09     0.02   0.06   0.11
     3   8    -0.46  -0.15  -0.22    -0.11   0.48   0.09     0.02  -0.06   0.11
     4   8    -0.00   0.57   0.00     0.24   0.00   0.09    -0.45  -0.00   0.62
     5  17     0.00   0.02  -0.00    -0.19  -0.00   0.04     0.20   0.00  -0.16
                      7                      8                      9
                      A                      A                      A
 Frequencies --   1023.4128              1465.7075              1514.2584
 Red. masses --     15.7386                14.6319                14.8564
 Frc consts  --      9.7122                18.5202                20.0708
 IR Inten    --     80.8763                46.2880               101.8521
  Atom  AN      X      Y      Z        X      Y      Z        X      Y      Z
     1   7    -0.30   0.00  -0.36    -0.00   0.83   0.00     0.76   0.00   0.03
     2   8    -0.13   0.28  -0.03     0.21  -0.34  -0.03    -0.28   0.36   0.01
     3   8    -0.13  -0.28  -0.03    -0.21  -0.33   0.03    -0.28  -0.36   0.01
     4   8     0.71  -0.00   0.27     0.00  -0.05   0.00    -0.08  -0.00  -0.06
     5  17    -0.09  -0.00   0.05     0.00   0.00  -0.00    -0.01   0.00  -0.00

 -------------------
 - Thermochemistry -
 -------------------
 Temperature   298.150 Kelvin.  Pressure   1.00000 Atm.
 Atom     1 has atomic number  7 and mass  14.00307
 Atom     2 has atomic number  8 and mass  15.99491
 Atom     3 has atomic number  8 and mass  15.99491
 Atom     4 has atomic number  8 and mass  15.99491
 Atom     5 has atomic number 17 and mass  34.96885
 Molecular mass:    96.95667 amu.
 Principal axes and moments of inertia in atomic units:
                           1         2         3
     Eigenvalues --   149.31995 685.51348 770.20722
           X            1.00000  -0.00000   0.00154
           Y            0.00000   1.00000   0.00000
           Z           -0.00154  -0.00000   1.00000
 This molecule is an asymmetric top.
 Rotational symmetry number  1.
 Rotational temperatures (Kelvin)      0.58006     0.12635     0.11246
 Rotational constants (GHZ):          12.08640     2.63269     2.34319
 Zero-point vibrational energy      41767.4 (Joules/Mol)
                                    9.98266 (Kcal/Mol)
 Warning -- explicit consideration of   4 degrees of freedom as
           vibrations may cause significant error
 Vibrational temperatures:      2.28   429.40   763.53   793.50   974.23
          (Kelvin)           1324.03  1472.46  2108.83  2178.68
 
 Zero-point correction=                           0.015908 (Hartree/Particle)
 Thermal correction to Energy=                    0.020711
 Thermal correction to Enthalpy=                  0.021655
 Thermal correction to Gibbs Free Energy=        -0.016494
 Sum of electronic and zero-point Energies=           -738.205595
 Sum of electronic and thermal Energies=              -738.200792
 Sum of electronic and thermal Enthalpies=            -738.199848
 Sum of electronic and thermal Free Energies=         -738.237998
 
                     E (Thermal)             CV                S
                      KCal/Mol        Cal/Mol-Kelvin    Cal/Mol-Kelvin
 Total                   12.996             13.798             80.292
 Electronic               0.000              0.000              0.000
 Translational            0.889              2.981             39.626
 Rotational               0.889              2.981             25.869
 Vibrational             11.219              7.837             14.797
 Vibration     1          0.592              1.987             11.671
 Vibration     2          0.692              1.677              1.426
 Vibration     3          0.886              1.182              0.586
 Vibration     4          0.907              1.136              0.541
                       Q            Log10(Q)             Ln(Q)
 Total Bot       0.386243D+08          7.586861         17.469393
 Total V=0       0.802045D+15         14.904199         34.318185
 Vib (Bot)       0.102406D-04         -4.989676        -11.489153
 Vib (Bot)    1  0.130749D+03          2.116437          4.873277
 Vib (Bot)    2  0.637781D+00         -0.195328         -0.449760
 Vib (Bot)    3  0.301172D+00         -0.521185         -1.200074
 Vib (Bot)    4  0.284137D+00         -0.546473         -1.258300
 Vib (V=0)       0.212648D+03          2.327662          5.359639
 Vib (V=0)    1  0.131250D+03          2.118098          4.877102
 Vib (V=0)    2  0.131041D+01          0.117407          0.270340
 Vib (V=0)    3  0.108370D+01          0.034909          0.080380
 Vib (V=0)    4  0.107509D+01          0.031447          0.072409
 Electronic      0.100000D+01          0.000000          0.000000
 Translational   0.375250D+08          7.574320         17.440517
 Rotational      0.100512D+06          5.002216         11.518029
 ***** Axes restored to original set *****
 -------------------------------------------------------------------
 Center     Atomic                   Forces (Hartrees/Bohr)
 Number     Number              X              Y              Z
 -------------------------------------------------------------------
      1        7           0.000066694   -0.000030488   -0.000075641
      2        8          -0.000108098    0.000218266   -0.000021724
      3        8          -0.000177960   -0.000238893   -0.000063934
      4        8           0.000251548    0.000047980    0.000180453
      5       17          -0.000032184    0.000003136   -0.000019154
 -------------------------------------------------------------------
 Cartesian Forces:  Max     0.000251548 RMS     0.000132483
 -------------------------------------------------------------------
 Center     Atomic                Nonadiabatic Coup. (Bohr^-1)
 Number     Number              X              Y              Z
 -------------------------------------------------------------------
      1        7          -0.000230911   -0.626287534   -0.000378856
      2        8          -0.155001739    0.278569753   -0.135234851
      3        8           0.155189723    0.278181217    0.135479816
      4        8           0.000048315    0.045266925    0.000136171
      5       17          -0.000027391   -0.019325180   -0.000031937
 -------------------------------------------------------------------
 Cartesian Nonad. Coup.:  Max     0.626287534 RMS     0.205653006
 FormGI is forming the generalized inverse of G from B-inverse, IUseBI=4.

 GradGradGradGradGradGradGradGradGradGradGradGradGradGradGradGradGradGrad
 Berny optimization.
 Internal  Forces:  Max     0.000296220 RMS     0.000152583
 Search for a local minimum.
 Step number   1 out of a maximum of    2
 All quantities printed in internal units (Hartrees-Bohrs-Radians)
 Second derivative matrix not updated -- analytic derivatives used.
 The second derivative matrix:
                          R1        R2        R3        R4        A1
           R1           0.65026
           R2           0.15444   0.65060
           R3           0.05651   0.05656   0.37918
           R4          -0.00300  -0.00301   0.04105   0.30726
           A1           0.04032   0.04065  -0.03251  -0.00038   0.17062
           A2           0.00269  -0.03008   0.02238  -0.00067  -0.07689
           A3          -0.02618   0.01510   0.04404  -0.00269  -0.08399
           A4           0.01138   0.01139   0.06019   0.05925  -0.01100
           D1          -0.02003  -0.01232  -0.04291   0.00404   0.02000
           D2           0.01378   0.02827   0.01077  -0.00212   0.04542
           D3          -0.02339  -0.01866  -0.01078   0.00212  -0.04523
                          A2        A3        A4        D1        D2
           A2           0.13912
           A3          -0.08517   0.23114
           A4           0.00660   0.01159   0.33656
           D1          -0.04312  -0.01391  -0.00982   0.05703
           D2          -0.03816   0.02357   0.00132  -0.01360   0.02922
           D3           0.02286  -0.00431  -0.00133   0.01719  -0.02555
                          D3
           D3           0.02465
 ITU=  0
     Eigenvalues ---    0.00015   0.07705   0.23459   0.26195   0.27565
     Eigenvalues ---    0.32965   0.46367   0.50320   0.82973
 Angle between quadratic step and forces=  86.91 degrees.
 Linear search not attempted -- first point.
 Iteration  1 RMS(Cart)=  0.00643840 RMS(Int)=  0.00003054
 Iteration  2 RMS(Cart)=  0.00002593 RMS(Int)=  0.00000012
 Iteration  3 RMS(Cart)=  0.00000000 RMS(Int)=  0.00000012
 Variable       Old X    -DE/DX   Delta X   Delta X   Delta X     New X
                                 (Linear)    (Quad)   (Total)
    R1        2.33482   0.00024   0.00000   0.00004   0.00004   2.33486
    R2        2.33473   0.00030   0.00000   0.00051   0.00051   2.33524
    R3        2.55252   0.00027   0.00000   0.00063   0.00063   2.55315
    R4        3.12662  -0.00002   0.00000  -0.00003  -0.00003   3.12659
    A1        1.91980   0.00001   0.00000   0.00010   0.00010   1.91990
    A2        2.02575  -0.00005   0.00000  -0.00090  -0.00090   2.02485
    A3        2.02517   0.00012   0.00000   0.00119   0.00119   2.02636
    A4        1.94948  -0.00011   0.00000  -0.00047  -0.00047   1.94901
    D1       -2.34363  -0.00006   0.00000   0.00007   0.00007  -2.34357
    D2       -1.99333   0.00005   0.00000  -0.01312  -0.01312  -2.00645
    D3        1.99475  -0.00005   0.00000  -0.01359  -0.01359   1.98116
         Item               Value     Threshold  Converged?
 Maximum Force            0.000296     0.000450     YES
 RMS     Force            0.000153     0.000300     YES
 Maximum Displacement     0.012008     0.001800     NO 
 RMS     Displacement     0.006439     0.001200     NO 
 Predicted change in Energy=-2.585132D-07
                           ----------------------------
                           ! Non-Optimized Parameters !
                           ! (Angstroms and Degrees)  !
 --------------------------                            --------------------------
 ! Name  Definition              Value          Derivative Info.                !
 --------------------------------------------------------------------------------
 ! R1    R(1,2)                  1.2356         -DE/DX =    0.0002              !
 ! R2    R(1,3)                  1.2358         -DE/DX =    0.0003              !
 ! R3    R(1,4)                  1.3511         -DE/DX =    0.0003              !
 ! R4    R(4,5)                  1.6545         -DE/DX =    0.0                 !
 ! A1    A(2,1,3)              110.0019         -DE/DX =    0.0                 !
 ! A2    A(2,1,4)              116.0153         -DE/DX =   -0.0001              !
 ! A3    A(3,1,4)              116.1021         -DE/DX =    0.0001              !
 ! A4    A(1,4,5)              111.6701         -DE/DX =   -0.0001              !
 ! D1    D(2,1,3,4)           -134.2764         -DE/DX =   -0.0001              !
 ! D2    D(2,1,4,5)           -114.9611         -DE/DX =    0.0001              !
 ! D3    D(3,1,4,5)            113.5124         -DE/DX =    0.0                 !
 --------------------------------------------------------------------------------
 GradGradGradGradGradGradGradGradGradGradGradGradGradGradGradGradGradGrad

 -------------------------------------------------------------------
 Center     Atomic                Nonadiabatic Coup. (Bohr^-1)
 Number     Number              X              Y              Z
 -------------------------------------------------------------------
      1        7          -0.000230911   -0.626287534   -0.000378856
      2        8          -0.155001739    0.278569753   -0.135234851
      3        8           0.155189723    0.278181217    0.135479816
      4        8           0.000048315    0.045266925    0.000136171
      5       17          -0.000027391   -0.019325180   -0.000031937
 -------------------------------------------------------------------
 Cartesian Nonad. Coup.:  Max     0.626287534 RMS     0.205653006

 ----------------------------------------------------------------------

 Electric dipole moment (input orientation):
 (Debye = 10**-18 statcoulomb cm , SI units = C m)
                  (au)            (Debye)         (10**-30 SI)
   Tot        0.793176D+00      0.201605D+01      0.672483D+01
   x          0.785900D+00      0.199756D+01      0.666314D+01
   y         -0.266396D-03     -0.677112D-03     -0.225860D-02
   z         -0.107185D+00     -0.272436D+00     -0.908748D+00

 Dipole polarizability, Alpha (input orientation).
 (esu units = cm**3 , SI units = C**2 m**2 J**-1)
 Alpha(0;0):
               (au)            (10**-24 esu)      (10**-40 SI)
   iso        0.433658D+02      0.642615D+01      0.715005D+01
   aniso      0.264057D+02      0.391292D+01      0.435371D+01
   xx         0.480267D+02      0.711682D+01      0.791853D+01
   yx         0.762338D-02      0.112967D-02      0.125693D-02
   yy         0.556435D+02      0.824552D+01      0.917438D+01
   zx        -0.165161D+01     -0.244743D+00     -0.272313D+00
   zy         0.162861D-01      0.241334D-02      0.268521D-02
   zz         0.264271D+02      0.391610D+01      0.435725D+01

 ----------------------------------------------------------------------

 Dipole orientation:
     7         -0.46954165         -0.00001382         -1.51700560
     8         -0.58978181         -1.91262868         -2.85072763
     8         -0.59323228          1.91235367         -2.85061492
     8          1.34362230          0.00240194          0.27959974
    17          0.11993971         -0.00063942          3.15680880

 Electric dipole moment (dipole orientation):
 (Debye = 10**-18 statcoulomb cm , SI units = C m)
                  (au)            (Debye)         (10**-30 SI)
   Tot        0.793176D+00      0.201605D+01      0.672483D+01
   x          0.000000D+00      0.000000D+00      0.000000D+00
   y          0.000000D+00      0.000000D+00      0.000000D+00
   z          0.793176D+00      0.201605D+01      0.672483D+01

 Dipole polarizability, Alpha (dipole orientation).
 (esu units = cm**3 , SI units = C**2 m**2 J**-1)
 Alpha(0;0):
               (au)            (10**-24 esu)      (10**-40 SI)
   iso        0.433658D+02      0.642615D+01      0.715005D+01
   aniso      0.264057D+02      0.391292D+01      0.435371D+01
   xx         0.263793D+02      0.390901D+01      0.434936D+01
   yx        -0.261829D-01     -0.387991D-02     -0.431698D-02
   yy         0.556435D+02      0.824552D+01      0.917437D+01
   zx         0.130076D+01      0.192752D+00      0.214466D+00
   zy        -0.242922D-02     -0.359973D-03     -0.400524D-03
   zz         0.480745D+02      0.712391D+01      0.792642D+01

 ----------------------------------------------------------------------
 1\1\GINC-GRA372\Freq\RCIS-FC\6-311++G(3df,3pd)\Cl1N1O3\ALREBEI\23-Feb-
 2020\0\\#N Geom=AllCheck Guess=TCheck SCRF=Check GenChk RCIS(FC,Read)/
 6-311++G(3df,3pd) Freq\\Title Card Required\\0,1\N,-0.8289780288,0.000
 2040858,-0.1377113245\O,-1.5365811159,1.0125345734,-0.1057221965\O,-1.
 5373621531,-1.0115592732,-0.1068596021\O,0.2426820807,-0.0011123017,0.
 6844988215\Cl,1.6637652171,-0.0002040843,-0.1628546984\\Version=ES64L-
 G16RevA.03\State=1-A\HF=-738.3200999\RMSD=2.137e-10\RMSF=1.325e-04\Zer
 oPoint=0.0159084\Thermal=0.0207108\Dipole=0.7859005,-0.0002664,-0.1071
 845\DipoleDeriv=1.1360588,-0.0001779,0.309319,-0.0007149,0.5444435,0.0
 001619,0.598642,-0.0000316,0.2967076,-0.3687039,0.3019245,-0.0946474,0
 .0365619,-0.402475,0.0956275,-0.0423745,0.0677399,-0.1539156,-0.369002
 9,-0.3023348,-0.0950707,-0.0366647,-0.4014657,-0.0959002,-0.042428,-0.
 068057,-0.1539185,-0.7774004,0.0003788,0.0185098,0.0007371,0.1327308,0
 .0001065,-0.4261756,0.0003119,-0.1287287,0.3790484,0.0002095,-0.138110
 7,0.0000806,0.1267665,0.0000044,-0.0876639,0.0000369,0.1398553\Polar=4
 8.0266965,0.0076234,55.6435073,-1.6516065,0.0162861,26.4271444\PG=C01 
 [X(Cl1N1O3)]\NImag=0\\0.74809468,0.00017893,0.76214880,0.04631950,0.00
 022308,0.25536076,-0.26123470,0.18756815,0.00193290,0.25457936,0.25711
 768,-0.33678240,-0.02220041,-0.25668979,0.48529770,0.02665776,-0.04611
 940,-0.05253010,0.01566231,0.01173202,0.03463085,-0.26170428,-0.187807
 46,0.00173831,0.05558027,-0.03341163,-0.00331963,0.25519448,-0.2574082
 2,-0.33666994,0.02187438,0.03326986,-0.15658202,0.00649379,0.25703816,
 0.48507639,0.02644571,0.04578121,-0.05243226,-0.00329408,-0.00669542,0
 .01286186,0.01597405,-0.01122303,0.03459242,-0.16656862,0.00007192,-0.
 05193349,-0.04807011,0.03449010,-0.04026491,-0.04821347,-0.03441403,-0
 .04038686,0.45491343,0.00009787,-0.08736825,0.00013954,0.03220951,0.00
 961420,0.02629232,-0.03218731,0.00971150,-0.02626185,-0.00001383,0.063
 96041,-0.09392462,0.00015342,-0.18148960,-0.01037414,0.01412578,0.0081
 7810,-0.01044795,-0.01410576,0.00812927,0.00821257,-0.00031405,0.27931
 052,-0.05858708,-0.00001154,0.00194278,-0.00085482,-0.00150635,0.00126
 447,-0.00085700,0.00151423,0.00126118,-0.19206123,-0.00010624,0.106534
 14,0.25236013,0.00001374,-0.00132821,-0.00003658,0.00364228,-0.0015474
 8,0.00160126,-0.00363176,-0.00153593,-0.00160092,-0.00013415,0.0040821
 4,0.00014061,0.00010990,0.00032948,-0.00549835,-0.00003832,0.03109120,
 -0.00392699,0.00303803,-0.00314071,-0.00394478,-0.00303938,-0.00315127
 ,0.12437269,0.00014405,-0.11412828,-0.11100257,-0.00010437,0.08932906\
 \-0.00006669,0.00003049,0.00007564,0.00010810,-0.00021827,0.00002172,0
 .00017796,0.00023889,0.00006393,-0.00025155,-0.00004798,-0.00018045,0.
 00003218,-0.00000314,0.00001915\\\@


 WE HAVE SEEN THAT MAN ON THE AVERAGE DOES NOT LIVE ABOVE
 TWO-AND-TWENTY YEARS.  DURING THESE TWO AND TWENTY
 YEARS HE IS LIABLE TO TWO AND TWENTY THOUSAND EVILS,
 MANY OF WHICH ARE INCURABLE.  YET EVEN IN THIS DREADFUL STATE
 MEN STILL STRUT AND POSE ON THE STAGE OF LIFE.
 THEY MAKE LOVE AT THE RISK OF DESTRUCTION,
 INTRIGUE, CARRY ON WAR, AND FORM PROJECTS, JUST AS IF THEY
 WERE TO LIVE IN LUXURY AND HAPPINESS FOR A THOUSAND
 AGES.

                                              -- VOLTAIRE
 Job cpu time:       0 days  0 hours 13 minutes 55.9 seconds.
 Elapsed time:       0 days  0 hours 11 minutes 32.9 seconds.
 File lengths (MBytes):  RWF=    142 Int=      0 D2E=      0 Chk=      8 Scr=      1
 Normal termination of Gaussian 16 at Sun Feb 23 01:43:17 2020.
