 Entering Gaussian System, Link 0=g16
 Initial command:
 /opt/software/gaussian/g16.a03/l1.exe "/localscratch/alrebei.28376424.0/Gau-11821.inp" -scrdir="/localscratch/alrebei.28376424.0/"
 Entering Link 1 = /opt/software/gaussian/g16.a03/l1.exe PID=     11822.
  
 Copyright (c) 1988,1990,1992,1993,1995,1998,2003,2009,2016,
            Gaussian, Inc.  All Rights Reserved.
  
 This is part of the Gaussian(R) 16 program.  It is based on
 the Gaussian(R) 09 system (copyright 2009, Gaussian, Inc.),
 the Gaussian(R) 03 system (copyright 2003, Gaussian, Inc.),
 the Gaussian(R) 98 system (copyright 1998, Gaussian, Inc.),
 the Gaussian(R) 94 system (copyright 1995, Gaussian, Inc.),
 the Gaussian 92(TM) system (copyright 1992, Gaussian, Inc.),
 the Gaussian 90(TM) system (copyright 1990, Gaussian, Inc.),
 the Gaussian 88(TM) system (copyright 1988, Gaussian, Inc.),
 the Gaussian 86(TM) system (copyright 1986, Carnegie Mellon
 University), and the Gaussian 82(TM) system (copyright 1983,
 Carnegie Mellon University). Gaussian is a federally registered
 trademark of Gaussian, Inc.
  
 This software contains proprietary and confidential information,
 including trade secrets, belonging to Gaussian, Inc.
  
 This software is provided under written license and may be
 used, copied, transmitted, or stored only in accord with that
 written license.
  
 The following legend is applicable only to US Government
 contracts under FAR:
  
                    RESTRICTED RIGHTS LEGEND
  
 Use, reproduction and disclosure by the US Government is
 subject to restrictions as set forth in subparagraphs (a)
 and (c) of the Commercial Computer Software - Restricted
 Rights clause in FAR 52.227-19.
  
 Gaussian, Inc.
 340 Quinnipiac St., Bldg. 40, Wallingford CT 06492
  
  
 ---------------------------------------------------------------
 Warning -- This program may not be used in any manner that
 competes with the business of Gaussian, Inc. or will provide
 assistance to any competitor of Gaussian, Inc.  The licensee
 of this program is prohibited from giving any competitor of
 Gaussian, Inc. access to this program.  By using this program,
 the user acknowledges that Gaussian, Inc. is engaged in the
 business of creating and licensing software in the field of
 computational chemistry and represents and warrants to the
 licensee that it is not a competitor of Gaussian, Inc. and that
 it will not use this program in any manner prohibited above.
 ---------------------------------------------------------------
  

 Cite this work as:
 Gaussian 16, Revision A.03,
 M. J. Frisch, G. W. Trucks, H. B. Schlegel, G. E. Scuseria, 
 M. A. Robb, J. R. Cheeseman, G. Scalmani, V. Barone, 
 G. A. Petersson, H. Nakatsuji, X. Li, M. Caricato, A. V. Marenich, 
 J. Bloino, B. G. Janesko, R. Gomperts, B. Mennucci, H. P. Hratchian, 
 J. V. Ortiz, A. F. Izmaylov, J. L. Sonnenberg, D. Williams-Young, 
 F. Ding, F. Lipparini, F. Egidi, J. Goings, B. Peng, A. Petrone, 
 T. Henderson, D. Ranasinghe, V. G. Zakrzewski, J. Gao, N. Rega, 
 G. Zheng, W. Liang, M. Hada, M. Ehara, K. Toyota, R. Fukuda, 
 J. Hasegawa, M. Ishida, T. Nakajima, Y. Honda, O. Kitao, H. Nakai, 
 T. Vreven, K. Throssell, J. A. Montgomery, Jr., J. E. Peralta, 
 F. Ogliaro, M. J. Bearpark, J. J. Heyd, E. N. Brothers, K. N. Kudin, 
 V. N. Staroverov, T. A. Keith, R. Kobayashi, J. Normand, 
 K. Raghavachari, A. P. Rendell, J. C. Burant, S. S. Iyengar, 
 J. Tomasi, M. Cossi, J. M. Millam, M. Klene, C. Adamo, R. Cammi, 
 J. W. Ochterski, R. L. Martin, K. Morokuma, O. Farkas, 
 J. B. Foresman, and D. J. Fox, Gaussian, Inc., Wallingford CT, 2016.
 
 ******************************************
 Gaussian 16:  ES64L-G16RevA.03 25-Dec-2016
                24-Feb-2020 
 ******************************************
 %nprocshared=2
 Will use up to    2 processors via shared memory.
 %mem=2GB
 ---------------------------------------
 # opt freq cis/6-311++g(3df,3pd) scf=qc
 ---------------------------------------
 1/18=20,19=15,38=1/1,3;
 2/9=110,12=2,17=6,18=5,40=1/2;
 3/5=4,6=6,7=1616,11=9,25=1,30=1,71=1/1,2,3,8;
 4//1;
 5/5=2,8=3,38=5/8;
 8/6=1,10=2/1;
 9/15=2,42=1/14;
 10/5=4/2;
 6/7=2,8=2,9=2,10=2/1;
 7/12=6,13=5/1,2,3,16;
 1/18=20,19=15/3(2);
 2/9=110/2;
 99//99;
 2/9=110/2;
 3/5=4,6=6,7=1616,11=9,25=1,30=1,71=1/1,2,3,8;
 4/5=5,16=3,69=1/1;
 5/5=2,8=3,38=5/8;
 8/6=1,10=2/1;
 9/15=2,42=1,49=4/14;
 10/5=4/2;
 7/12=6,13=5/1,2,3,16;
 1/18=20,19=15/3(-8);
 2/9=110/2;
 6/7=2,8=2,9=2,10=2/1;
 99//99;
 -------------------
 Title Card Required
 -------------------
 Symbolic Z-matrix:
 Charge =  0 Multiplicity = 1
 N                     1.25213   0.05179   0. 
 O                     1.18051   1.21265   0.00006 
 O                     2.14329  -0.68917   0. 
 O                    -0.68587  -0.94348  -0.00004 
 Cl                   -1.75696   0.17632  -0.00001 
 
 Add virtual bond connecting atoms O4         and N1         Dist= 4.12D+00.

 GradGradGradGradGradGradGradGradGradGradGradGradGradGradGradGradGradGrad
 Berny optimization.
 Initialization pass.
                           ----------------------------
                           !    Initial Parameters    !
                           ! (Angstroms and Degrees)  !
 --------------------------                            --------------------------
 ! Name  Definition              Value          Derivative Info.                !
 --------------------------------------------------------------------------------
 ! R1    R(1,2)                  1.1631         estimate D2E/DX2                !
 ! R2    R(1,3)                  1.159          estimate D2E/DX2                !
 ! R3    R(1,4)                  2.1786         estimate D2E/DX2                !
 ! R4    R(4,5)                  1.5496         estimate D2E/DX2                !
 ! A1    A(2,1,3)              133.2722         estimate D2E/DX2                !
 ! A2    A(2,1,4)              113.6525         estimate D2E/DX2                !
 ! A3    A(3,1,4)              113.0753         estimate D2E/DX2                !
 ! A4    A(1,4,5)              106.5436         estimate D2E/DX2                !
 ! D1    D(2,1,3,4)            179.9967         estimate D2E/DX2                !
 ! D2    D(2,1,4,5)              0.0016         estimate D2E/DX2                !
 ! D3    D(3,1,4,5)            179.999          estimate D2E/DX2                !
 --------------------------------------------------------------------------------
 Trust Radius=3.00D-01 FncErr=1.00D-07 GrdErr=1.00D-07 EigMax=2.50D+02 EigMin=1.00D-04
 Number of steps in this run=     21 maximum allowed number of steps=    100.
 GradGradGradGradGradGradGradGradGradGradGradGradGradGradGradGradGradGrad

                          Input orientation:                          
 ---------------------------------------------------------------------
 Center     Atomic      Atomic             Coordinates (Angstroms)
 Number     Number       Type             X           Y           Z
 ---------------------------------------------------------------------
      1          7           0        1.252129    0.051789    0.000000
      2          8           0        1.180510    1.212645    0.000061
      3          8           0        2.143288   -0.689165    0.000003
      4          8           0       -0.685868   -0.943476   -0.000037
      5         17           0       -1.756962    0.176321   -0.000013
 ---------------------------------------------------------------------
                    Distance matrix (angstroms):
                    1          2          3          4          5
     1  N    0.000000
     2  O    1.163063   0.000000
     3  O    1.158955   2.131624   0.000000
     4  O    2.178620   2.851706   2.840563   0.000000
     5  Cl   3.011667   3.114917   3.995124   1.549577   0.000000
 Stoichiometry    ClNO3
 Framework group  C1[X(ClNO3)]
 Deg. of freedom     9
 Full point group                 C1      NOp   1
 Largest Abelian subgroup         C1      NOp   1
 Largest concise Abelian subgroup C1      NOp   1
                         Standard orientation:                         
 ---------------------------------------------------------------------
 Center     Atomic      Atomic             Coordinates (Angstroms)
 Number     Number       Type             X           Y           Z
 ---------------------------------------------------------------------
      1          7           0        1.252129    0.051789    0.000000
      2          8           0        1.180510    1.212645    0.000061
      3          8           0        2.143288   -0.689165    0.000003
      4          8           0       -0.685868   -0.943476   -0.000037
      5         17           0       -1.756962    0.176321   -0.000013
 ---------------------------------------------------------------------
 Rotational constants (GHZ):          10.8732416           2.1675114           1.8072480
 Standard basis: 6-311++G(3df,3pd) (5D, 7F)
 There are   233 symmetry adapted cartesian basis functions of A   symmetry.
 There are   203 symmetry adapted basis functions of A   symmetry.
   203 basis functions,   307 primitive gaussians,   233 cartesian basis functions
    24 alpha electrons       24 beta electrons
       nuclear repulsion energy       212.8092668937 Hartrees.
 NAtoms=    5 NActive=    5 NUniq=    5 SFac= 1.00D+00 NAtFMM=   60 NAOKFM=F Big=F
 Integral buffers will be    131072 words long.
 Raffenetti 1 integral format.
 Two-electron integral symmetry is turned on.
 One-electron integrals computed using PRISM.
 NBasis=   203 RedAO= T EigKep=  1.56D-04  NBF=   203
 NBsUse=   203 1.00D-06 EigRej= -1.00D+00 NBFU=   203
 ExpMin= 4.83D-02 ExpMax= 1.06D+05 ExpMxC= 3.62D+03 IAcc=3 IRadAn=         5 AccDes= 0.00D+00
 Harris functional with IExCor=  205 and IRadAn=       5 diagonalized for initial guess.
 HarFok:  IExCor=  205 AccDes= 0.00D+00 IRadAn=         5 IDoV= 1 UseB2=F ITyADJ=14
 ICtDFT=  3500011 ScaDFX=  1.000000  1.000000  1.000000  1.000000
 FoFCou: FMM=F IPFlag=           0 FMFlag=      100000 FMFlg1=           0
         NFxFlg=           0 DoJE=T BraDBF=F KetDBF=T FulRan=T
         wScrn=  0.000000 ICntrl=       500 IOpCl=  0 I1Cent=   200000004 NGrid=           0
         NMat0=    1 NMatS0=      1 NMatT0=    0 NMatD0=    1 NMtDS0=    0 NMtDT0=    0
 Petite list used in FoFCou.
 Keep R1 ints in memory in canonical form, NReq=220787261.
 Gradient too large for Newton-Raphson -- use scaled steepest descent instead.
 Gradient too large for Newton-Raphson -- use scaled steepest descent instead.
     Accept linear search using points  2 and  3.
 Gradient too large for Newton-Raphson -- use scaled steepest descent instead.
 Gradient too large for Newton-Raphson -- use scaled steepest descent instead.
     Accept linear search using points  1 and  2.
 Gradient too large for Newton-Raphson -- use scaled steepest descent instead.
 Gradient too large for Newton-Raphson -- use scaled steepest descent instead.
     Accept linear search using points  1 and  2.
 LinEq1:  Iter=  0 NonCon=     1 RMS=9.91D-05 Max=4.12D-03 NDo=     1
 AX will form     1 AO Fock derivatives at one time.
 LinEq1:  Iter=  1 NonCon=     1 RMS=5.04D-05 Max=1.31D-03 NDo=     1
 LinEq1:  Iter=  2 NonCon=     1 RMS=8.87D-06 Max=1.39D-04 NDo=     1
 LinEq1:  Iter=  3 NonCon=     1 RMS=1.78D-06 Max=3.27D-05 NDo=     1
 LinEq1:  Iter=  4 NonCon=     1 RMS=1.27D-06 Max=3.91D-05 NDo=     1
 LinEq1:  Iter=  5 NonCon=     1 RMS=3.50D-07 Max=9.20D-06 NDo=     1
 LinEq1:  Iter=  6 NonCon=     1 RMS=1.53D-07 Max=5.00D-06 NDo=     1
 LinEq1:  Iter=  7 NonCon=     1 RMS=6.46D-08 Max=2.08D-06 NDo=     1
 LinEq1:  Iter=  8 NonCon=     1 RMS=2.84D-08 Max=6.78D-07 NDo=     1
 LinEq1:  Iter=  9 NonCon=     1 RMS=1.56D-08 Max=4.25D-07 NDo=     1
 LinEq1:  Iter= 10 NonCon=     1 RMS=5.51D-09 Max=1.73D-07 NDo=     1
 LinEq1:  Iter= 11 NonCon=     0 RMS=1.73D-09 Max=2.79D-08 NDo=     1
 Linear equations converged to 9.269D-09 9.269D-08 after    11 iterations.
     Accept linear search using points  1 and  2.
     Minimum is close to point  2 DX= -3.83D-03 DF= -1.43D-09 DXR=  3.85D-03 DFR=  1.48D-05 which will be used.
 LinEq1:  Iter=  0 NonCon=     1 RMS=1.02D-06 Max=4.13D-05 NDo=     1
 LinEq1:  Iter=  1 NonCon=     1 RMS=6.69D-07 Max=2.69D-05 NDo=     1
 LinEq1:  Iter=  2 NonCon=     1 RMS=1.64D-07 Max=3.65D-06 NDo=     1
 LinEq1:  Iter=  3 NonCon=     1 RMS=1.05D-07 Max=2.58D-06 NDo=     1
 LinEq1:  Iter=  4 NonCon=     1 RMS=3.31D-08 Max=6.58D-07 NDo=     1
 LinEq1:  Iter=  5 NonCon=     1 RMS=1.12D-08 Max=2.99D-07 NDo=     1
 LinEq1:  Iter=  6 NonCon=     1 RMS=6.33D-09 Max=1.41D-07 NDo=     1
 LinEq1:  Iter=  7 NonCon=     1 RMS=1.92D-09 Max=3.32D-08 NDo=     1
 LinEq1:  Iter=  8 NonCon=     1 RMS=6.19D-10 Max=1.44D-08 NDo=     1
 LinEq1:  Iter=  9 NonCon=     0 RMS=2.30D-10 Max=4.24D-09 NDo=     1
 Linear equations converged to 7.299D-10 7.299D-09 after     9 iterations.
 SCF Done:  E(RHF) =  -738.305892434     a.u. after    9 cycles
            Convg  =    0.3923D-07                    41 Fock formations.
              S**2 =  0.0000                  -V/T =  2.0007
 ExpMin= 4.83D-02 ExpMax= 1.06D+05 ExpMxC= 3.62D+03 IAcc=3 IRadAn=         5 AccDes= 0.00D+00
 HarFok:  IExCor=  205 AccDes= 0.00D+00 IRadAn=         5 IDoV=-2 UseB2=F ITyADJ=14
 ICtDFT= 12500011 ScaDFX=  1.000000  1.000000  1.000000  1.000000
 Range of M.O.s used for correlation:    10   203
 NBasis=   203 NAE=    24 NBE=    24 NFC=     9 NFV=     0
 NROrb=    194 NOA=    15 NOB=    15 NVA=   179 NVB=   179

 **** Warning!!: The largest alpha MO coefficient is  0.27371324D+02

 Orbital symmetries:
       Occupied  (A) (A) (A) (A) (A) (A) (A) (A) (A) (A) (A) (A)
                 (A) (A) (A) (A) (A) (A) (A) (A) (A) (A) (A) (A)
       Virtual   (A) (A) (A) (A) (A) (A) (A) (A) (A) (A) (A) (A)
                 (A) (A) (A) (A) (A) (A) (A) (A) (A) (A) (A) (A)
                 (A) (A) (A) (A) (A) (A) (A) (A) (A) (A) (A) (A)
                 (A) (A) (A) (A) (A) (A) (A) (A) (A) (A) (A) (A)
                 (A) (A) (A) (A) (A) (A) (A) (A) (A) (A) (A) (A)
                 (A) (A) (A) (A) (A) (A) (A) (A) (A) (A) (A) (A)
                 (A) (A) (A) (A) (A) (A) (A) (A) (A) (A) (A) (A)
                 (A) (A) (A) (A) (A) (A) (A) (A) (A) (A) (A) (A)
                 (A) (A) (A) (A) (A) (A) (A) (A) (A) (A) (A) (A)
                 (A) (A) (A) (A) (A) (A) (A) (A) (A) (A) (A) (A)
                 (A) (A) (A) (A) (A) (A) (A) (A) (A) (A) (A) (A)
                 (A) (A) (A) (A) (A) (A) (A) (A) (A) (A) (A) (A)
                 (A) (A) (A) (A) (A) (A) (A) (A) (A) (A) (A) (A)
                 (A) (A) (A) (A) (A) (A) (A) (A) (A) (A) (A) (A)
                 (A) (A) (A) (A) (A) (A) (A) (A) (A) (A) (A)
    12 initial guesses have been made.
 Convergence on wavefunction:    0.000001000000000
 Iteration     1 Dimension    12 NMult     0 NNew     12
 CISAX will form    12 AO SS matrices at one time.
 New state      1 was old state      2
 New state      2 was old state      4
 Iteration     2 Dimension    24 NMult    12 NNew     12
 New state      2 was old state      4
 New state      3 was old state      2
 Iteration     3 Dimension    27 NMult    24 NNew      3
 Iteration     4 Dimension    30 NMult    27 NNew      3
 Iteration     5 Dimension    33 NMult    30 NNew      3
 Iteration     6 Dimension    36 NMult    33 NNew      3
 Iteration     7 Dimension    39 NMult    36 NNew      3
 Iteration     8 Dimension    42 NMult    39 NNew      3
 Iteration     9 Dimension    44 NMult    42 NNew      2
 Iteration    10 Dimension    46 NMult    44 NNew      2
 Iteration    11 Dimension    48 NMult    46 NNew      2
 Iteration    12 Dimension    49 NMult    48 NNew      1
 Iteration    13 Dimension    50 NMult    49 NNew      1
 ***********************************************************************
 Excited states from <AA,BB:AA,BB> singles matrix:
 ***********************************************************************
 
 Ground to excited state transition densities written to RWF  633
 Ground to excited state transition electric dipole moments (Au):
       state          X           Y           Z        Dip. S.      Osc.
         1         0.0000      0.0000      0.0087      0.0001      0.0000
         2         2.7153      0.4171      0.0000      7.5466      0.8152
         3         0.0002      0.0000      0.0022      0.0000      0.0000
 Ground to excited state transition velocity dipole moments (Au):
       state          X           Y           Z        Dip. S.      Osc.
         1        -0.0000     -0.0000     -0.0361      0.0013      0.0138
         2        -0.1893     -0.0167     -0.0000      0.0361      0.1486
         3        -0.0000      0.0000      0.0081      0.0001      0.0003
 Ground to excited state transition magnetic dipole moments (Au):
       state          X           Y           Z
         1        -0.3809      0.6350      0.0000
         2        -0.0001      0.0002     -0.8782
         3         0.2998      0.0094     -0.0000
 Ground to excited state transition velocity quadrupole moments (Au):
       state          XX          YY          ZZ          XY          XZ          YZ
         1         0.0000     -0.0000      0.0000     -0.0000      0.0168      0.0221
         2        -0.1843     -0.2783      0.0765     -0.1699     -0.0000     -0.0000
         3        -0.0000     -0.0000      0.0000      0.0000     -0.0242      0.0723
 <0|del|b> * <b|rxdel|0> + <0|del|b> * <b|delr+rdel|0>
 Rotatory Strengths (R) in cgs (10**-40 erg-esu-cm/Gauss)
       state          XX          YY          ZZ    R(velocity)    E-M Angle
         1        -0.0029      0.0009      0.0036      0.0005       90.00
         2         0.0106      0.0585      0.0227      0.0306       90.00
         3        -0.0004     -0.0134     -0.0078     -0.0072       90.00
 1/2[<0|r|b>*<b|rxdel|0> + (<0|rxdel|b>*<b|r|0>)*]
 Rotatory Strengths (R) in cgs (10**-40 erg-esu-cm/Gauss)
       state          XX          YY          ZZ     R(length)
         1         0.0018     -0.0006     -0.0001      0.0003
         2         0.1735     -0.0456      0.0180      0.0486
         3        -0.0336     -0.0001      0.0001     -0.0112
  1/2[<0|del|b>*<b|r|0> + (<0|r|b>*<b|del|0>)*] (Au)
       state          X           Y           Z        Dip. S.   Osc.(frdel)
         1        -0.0000     -0.0000     -0.0003      0.0003      0.0002
         2        -0.5140     -0.0069     -0.0000      0.5210      0.3473
         3        -0.0000      0.0000      0.0000     -0.0000     -0.0000

 Excitation energies and oscillator strengths:
 
 Excited State   1:      Singlet-A      1.7228 eV  719.68 nm  f=0.0000  <S**2>=0.000
      18 -> 25        -0.23625
      23 -> 25         0.65713
 This state for optimization and/or second-order correction.
 Total Energy, E(CIS/TDA) =  -738.242581424    
 Copying the excited state density for this state as the 1-particle RhoCI density.
 
 Excited State   2:      Singlet-A      4.4094 eV  281.18 nm  f=0.8152  <S**2>=0.000
      24 -> 25         0.66986
 
 Excited State   3:      Singlet-A      4.7672 eV  260.08 nm  f=0.0000  <S**2>=0.000
      22 -> 25         0.68710
      24 -> 26         0.10556
 SavETr:  write IOETrn=   770 NScale= 10 NData=  16 NLR=1 NState=    3 LETran=      64.
          IDoAtm=11111
          Differentiating once with respect to electric field.
                with respect to dipole field.
          Differentiating once with respect to nuclear coordinates.
 Keep R1 ints in memory in canonical form, NReq=220788045.
          There are     1 degrees of freedom in the 1st order CPHF.  IDoFFX=0 NUNeed=     1.
 LinEq1:  Iter=  0 NonCon=     1 RMS=1.48D-02 Max=8.12D-01 NDo=     1
 AX will form     1 AO Fock derivatives at one time.
 LinEq1:  Iter=  1 NonCon=     1 RMS=4.98D-03 Max=1.08D-01 NDo=     1
 LinEq1:  Iter=  2 NonCon=     1 RMS=2.53D-03 Max=4.38D-02 NDo=     1
 LinEq1:  Iter=  3 NonCon=     1 RMS=9.04D-04 Max=1.76D-02 NDo=     1
 LinEq1:  Iter=  4 NonCon=     1 RMS=5.27D-04 Max=1.32D-02 NDo=     1
 LinEq1:  Iter=  5 NonCon=     1 RMS=1.66D-04 Max=2.23D-03 NDo=     1
 LinEq1:  Iter=  6 NonCon=     1 RMS=6.39D-05 Max=2.30D-03 NDo=     1
 LinEq1:  Iter=  7 NonCon=     1 RMS=3.56D-05 Max=1.07D-03 NDo=     1
 LinEq1:  Iter=  8 NonCon=     1 RMS=1.22D-05 Max=2.93D-04 NDo=     1
 LinEq1:  Iter=  9 NonCon=     1 RMS=3.43D-06 Max=7.04D-05 NDo=     1
 LinEq1:  Iter= 10 NonCon=     1 RMS=9.36D-07 Max=2.71D-05 NDo=     1
 LinEq1:  Iter= 11 NonCon=     1 RMS=2.87D-07 Max=7.57D-06 NDo=     1
 LinEq1:  Iter= 12 NonCon=     1 RMS=7.49D-08 Max=1.14D-06 NDo=     1
 LinEq1:  Iter= 13 NonCon=     1 RMS=1.86D-08 Max=2.14D-07 NDo=     1
 LinEq1:  Iter= 14 NonCon=     1 RMS=4.12D-09 Max=9.05D-08 NDo=     1
 LinEq1:  Iter= 15 NonCon=     1 RMS=8.47D-10 Max=1.41D-08 NDo=     1
 LinEq1:  Iter= 16 NonCon=     1 RMS=2.04D-10 Max=5.25D-09 NDo=     1
 LinEq1:  Iter= 17 NonCon=     1 RMS=4.92D-11 Max=1.53D-09 NDo=     1
 LinEq1:  Iter= 18 NonCon=     0 RMS=1.87D-11 Max=7.04D-10 NDo=     1
 Linear equations converged to 1.000D-10 1.000D-09 after    18 iterations.
 End of Minotr F.D. properties file   721 does not exist.
 End of Minotr F.D. properties file   722 does not exist.
 End of Minotr F.D. properties file   788 does not exist.

 **********************************************************************

            Population analysis using the SCF density.

 **********************************************************************

 Orbital symmetries:
       Occupied  (A) (A) (A) (A) (A) (A) (A) (A) (A) (A) (A) (A)
                 (A) (A) (A) (A) (A) (A) (A) (A) (A) (A) (A) (A)
       Virtual   (A) (A) (A) (A) (A) (A) (A) (A) (A) (A) (A) (A)
                 (A) (A) (A) (A) (A) (A) (A) (A) (A) (A) (A) (A)
                 (A) (A) (A) (A) (A) (A) (A) (A) (A) (A) (A) (A)
                 (A) (A) (A) (A) (A) (A) (A) (A) (A) (A) (A) (A)
                 (A) (A) (A) (A) (A) (A) (A) (A) (A) (A) (A) (A)
                 (A) (A) (A) (A) (A) (A) (A) (A) (A) (A) (A) (A)
                 (A) (A) (A) (A) (A) (A) (A) (A) (A) (A) (A) (A)
                 (A) (A) (A) (A) (A) (A) (A) (A) (A) (A) (A) (A)
                 (A) (A) (A) (A) (A) (A) (A) (A) (A) (A) (A) (A)
                 (A) (A) (A) (A) (A) (A) (A) (A) (A) (A) (A) (A)
                 (A) (A) (A) (A) (A) (A) (A) (A) (A) (A) (A) (A)
                 (A) (A) (A) (A) (A) (A) (A) (A) (A) (A) (A) (A)
                 (A) (A) (A) (A) (A) (A) (A) (A) (A) (A) (A) (A)
                 (A) (A) (A) (A) (A) (A) (A) (A) (A) (A) (A) (A)
                 (A) (A) (A) (A) (A) (A) (A) (A) (A) (A) (A)
 The electronic state is 1-A.
 Alpha  occ. eigenvalues -- -104.90814 -20.72148 -20.71663 -20.67092 -15.94528
 Alpha  occ. eigenvalues --  -10.62955  -8.09783  -8.09482  -8.09401  -1.73365
 Alpha  occ. eigenvalues --   -1.54182  -1.42660  -1.02878  -0.94680  -0.83986
 Alpha  occ. eigenvalues --   -0.82409  -0.81979  -0.64507  -0.64115  -0.59556
 Alpha  occ. eigenvalues --   -0.57008  -0.56342  -0.43306  -0.38873
 Alpha virt. eigenvalues --   -0.07066   0.06702   0.08472   0.09042   0.11276
 Alpha virt. eigenvalues --    0.11953   0.13753   0.15359   0.17784   0.21072
 Alpha virt. eigenvalues --    0.23855   0.24251   0.25967   0.27830   0.30667
 Alpha virt. eigenvalues --    0.31073   0.33286   0.34998   0.35400   0.37074
 Alpha virt. eigenvalues --    0.38521   0.42126   0.42492   0.43907   0.48291
 Alpha virt. eigenvalues --    0.50288   0.52128   0.55141   0.57989   0.58054
 Alpha virt. eigenvalues --    0.61781   0.65091   0.71007   0.73325   0.75641
 Alpha virt. eigenvalues --    0.83231   0.83606   0.89104   0.91128   0.96323
 Alpha virt. eigenvalues --    1.01483   1.02750   1.07980   1.10360   1.12412
 Alpha virt. eigenvalues --    1.12714   1.15910   1.19123   1.19365   1.22684
 Alpha virt. eigenvalues --    1.23219   1.23548   1.24200   1.25515   1.28017
 Alpha virt. eigenvalues --    1.30879   1.36882   1.37639   1.37977   1.42333
 Alpha virt. eigenvalues --    1.45096   1.46635   1.49048   1.51707   1.61857
 Alpha virt. eigenvalues --    1.61951   1.67484   1.71652   1.74639   1.96971
 Alpha virt. eigenvalues --    2.03029   2.07748   2.15485   2.35250   2.35588
 Alpha virt. eigenvalues --    2.40679   2.41380   2.48874   2.49731   2.52248
 Alpha virt. eigenvalues --    2.53308   2.57578   2.59686   2.66578   2.70068
 Alpha virt. eigenvalues --    2.70623   2.82244   2.83717   2.94680   3.11733
 Alpha virt. eigenvalues --    3.41089   3.46346   3.51747   3.61149   3.66121
 Alpha virt. eigenvalues --    3.75086   3.75374   3.82644   3.85406   3.89361
 Alpha virt. eigenvalues --    3.94081   3.96049   3.96556   3.99144   4.05695
 Alpha virt. eigenvalues --    4.12256   4.16444   4.33557   4.34183   4.43697
 Alpha virt. eigenvalues --    4.51627   4.77584   4.92665   5.17643   5.31817
 Alpha virt. eigenvalues --    5.33319   5.35645   5.35752   5.38180   5.38618
 Alpha virt. eigenvalues --    5.41881   5.42755   5.43665   5.44083   5.48346
 Alpha virt. eigenvalues --    5.50686   5.53043   5.54300   5.60027   5.64284
 Alpha virt. eigenvalues --    5.65280   5.70004   5.76301   5.82528   5.83245
 Alpha virt. eigenvalues --    5.98193   5.98865   6.01714   6.03657   6.12648
 Alpha virt. eigenvalues --    6.19324   6.20918   6.23920   6.75127   6.91797
 Alpha virt. eigenvalues --    7.07918   7.15993   7.22129   7.70075   8.50902
 Alpha virt. eigenvalues --   10.51223  10.57678  10.67459  10.86576  11.26592
 Alpha virt. eigenvalues --   11.29917  14.88365  14.89497  14.91611  14.93024
 Alpha virt. eigenvalues --   14.95532  14.98904  15.00380  15.04966  15.22769
 Alpha virt. eigenvalues --   15.28296  15.33543  15.35088  15.49265  15.69765
 Alpha virt. eigenvalues --   16.01744  26.70167  26.84564  27.99590  37.89737
 Alpha virt. eigenvalues --   51.57780  52.11994  52.16722 219.49105
          Condensed to atoms (all electrons):
               1          2          3          4          5
     1  N    6.540630  -0.393715  -0.422371   0.201743  -0.021535
     2  O   -0.393715   8.962440  -0.033162  -0.068735   0.021255
     3  O   -0.422371  -0.033162   8.984262  -0.059340   0.009433
     4  O    0.201743  -0.068735  -0.059340   8.277874  -0.121881
     5  Cl  -0.021535   0.021255   0.009433  -0.121881  17.011410
 Mulliken charges:
               1
     1  N    1.095248
     2  O   -0.488084
     3  O   -0.478822
     4  O   -0.229661
     5  Cl   0.101318
 Sum of Mulliken charges =   0.00000
 Mulliken charges with hydrogens summed into heavy atoms:
               1
     1  N    1.095248
     2  O   -0.488084
     3  O   -0.478822
     4  O   -0.229661
     5  Cl   0.101318
 Electronic spatial extent (au):  <R**2>=            569.2714
 Charge=              0.0000 electrons
 Dipole moment (field-independent basis, Debye):
    X=              0.5452    Y=              0.9081    Z=              0.0000  Tot=              1.0592
 Quadrupole moment (field-independent basis, Debye-Ang):
   XX=            -32.3209   YY=            -35.7180   ZZ=            -33.1461
   XY=             -0.6147   XZ=             -0.0001   YZ=             -0.0001
 Traceless Quadrupole moment (field-independent basis, Debye-Ang):
   XX=              1.4074   YY=             -1.9897   ZZ=              0.5822
   XY=             -0.6147   XZ=             -0.0001   YZ=             -0.0001
 Octapole moment (field-independent basis, Debye-Ang**2):
  XXX=             -1.4167  YYY=              0.6480  ZZZ=              0.0001  XYY=             -0.4581
  XXY=              3.2753  XXZ=             -0.0000  XZZ=              4.3877  YZZ=             -0.1193
  YYZ=              0.0001  XYZ=             -0.0001
 Hexadecapole moment (field-independent basis, Debye-Ang**3):
 XXXX=           -502.6316 YYYY=           -122.0310 ZZZZ=            -29.9195 XXXY=             -3.8996
 XXXZ=             -0.0027 YYYX=             -1.3022 YYYZ=             -0.0016 ZZZX=             -0.0025
 ZZZY=             -0.0016 XXYY=           -103.2274 XXZZ=            -90.5945 YYZZ=            -25.8363
 XXYZ=             -0.0006 YYXZ=             -0.0009 ZZXY=              0.9708
 N-N= 2.128092668937D+02 E-N=-2.178290567417D+03  KE= 7.378145322993D+02
 Calling FoFJK, ICntrl=  10005127 FMM=F ISym2X=0 I1Cent= 0 IOpClX= 0 NMat=1 NMatS=1 NMatT=0.
 ***** Axes restored to original set *****
 -------------------------------------------------------------------
 Center     Atomic                   Forces (Hartrees/Bohr)
 Number     Number              X              Y              Z
 -------------------------------------------------------------------
      1        7           0.005984735    0.002275228    0.000001571
      2        8           0.000190987   -0.006493925   -0.000000670
      3        8          -0.005796119    0.004443268   -0.000000540
      4        8          -0.014987716    0.015080909    0.000000171
      5       17           0.014608114   -0.015305480   -0.000000531
 -------------------------------------------------------------------
 Cartesian Forces:  Max     0.015305480 RMS     0.008311675

 GradGradGradGradGradGradGradGradGradGradGradGradGradGradGradGradGradGrad
 Berny optimization.
 FormGI is forming the generalized inverse of G from B-inverse, IUseBI=4.
 Internal  Forces:  Max     0.021157699 RMS     0.007029022
 Search for a local minimum.
 Step number   1 out of a maximum of   21
 All quantities printed in internal units (Hartrees-Bohrs-Radians)
 Mixed Optimization -- RFO/linear search
 Second derivative matrix not updated -- first step.
 The second derivative matrix:
                          R1        R2        R3        R4        A1
           R1           1.25810
           R2           0.00000   1.28480
           R3           0.00000   0.00000   0.06221
           R4           0.00000   0.00000   0.00000   0.62350
           A1           0.00000   0.00000   0.00000   0.00000   0.25000
           A2           0.00000   0.00000   0.00000   0.00000   0.00000
           A3           0.00000   0.00000   0.00000   0.00000   0.00000
           A4           0.00000   0.00000   0.00000   0.00000   0.00000
           D1           0.00000   0.00000   0.00000   0.00000   0.00000
           D2           0.00000   0.00000   0.00000   0.00000   0.00000
           D3           0.00000   0.00000   0.00000   0.00000   0.00000
                          A2        A3        A4        D1        D2
           A2           0.25000
           A3           0.00000   0.25000
           A4           0.00000   0.00000   0.25000
           D1           0.00000   0.00000   0.00000   0.04483
           D2           0.00000   0.00000   0.00000   0.00000   0.00230
           D3           0.00000   0.00000   0.00000   0.00000   0.00000
                          D3
           D3           0.00230
 ITU=  0
     Eigenvalues ---    0.00230   0.03462   0.06221   0.25000   0.25000
     Eigenvalues ---    0.25000   0.62350   1.25810   1.28480
 RFO step:  Lambda=-7.95904966D-04 EMin= 2.30000000D-03
 Linear search not attempted -- first point.
 Iteration  1 RMS(Cart)=  0.00817449 RMS(Int)=  0.00000995
 Iteration  2 RMS(Cart)=  0.00001400 RMS(Int)=  0.00000000
 Iteration  3 RMS(Cart)=  0.00000000 RMS(Int)=  0.00000000
 Variable       Old X    -DE/DX   Delta X   Delta X   Delta X     New X
                                 (Linear)    (Quad)   (Total)
    R1        2.19787  -0.00649   0.00000  -0.00516  -0.00516   2.19271
    R2        2.19011  -0.00730   0.00000  -0.00568  -0.00568   2.18443
    R3        4.11699   0.00044   0.00000   0.00699   0.00699   4.12398
    R4        2.92828  -0.02116   0.00000  -0.03389  -0.03389   2.89439
    A1        2.32604   0.00036   0.00000   0.00145   0.00145   2.32749
    A2        1.98361  -0.00010   0.00000  -0.00038  -0.00038   1.98323
    A3        1.97354  -0.00027   0.00000  -0.00107  -0.00107   1.97246
    A4        1.85954   0.00007   0.00000   0.00027   0.00027   1.85980
    D1        3.14154   0.00000   0.00000   0.00002   0.00002   3.14155
    D2        0.00003  -0.00000   0.00000   0.00004   0.00004   0.00007
    D3        3.14158   0.00000   0.00000   0.00006   0.00006  -3.14155
         Item               Value     Threshold  Converged?
 Maximum Force            0.021158     0.000450     NO 
 RMS     Force            0.007029     0.000300     NO 
 Maximum Displacement     0.016664     0.001800     NO 
 RMS     Displacement     0.008172     0.001200     NO 
 Predicted change in Energy=-3.984544D-04
 GradGradGradGradGradGradGradGradGradGradGradGradGradGradGradGradGradGrad

                          Input orientation:                          
 ---------------------------------------------------------------------
 Center     Atomic      Atomic             Coordinates (Angstroms)
 Number     Number       Type             X           Y           Z
 ---------------------------------------------------------------------
      1          7           0        1.251895    0.053728    0.000007
      2          8           0        1.182449    1.211982    0.000072
      3          8           0        2.138387   -0.688131   -0.000018
      4          8           0       -0.691490   -0.939126   -0.000011
      5         17           0       -1.748144    0.169662   -0.000036
 ---------------------------------------------------------------------
                    Distance matrix (angstroms):
                    1          2          3          4          5
     1  N    0.000000
     2  O    1.160334   0.000000
     3  O    1.155951   2.127028   0.000000
     4  O    2.182317   2.852878   2.840987   0.000000
     5  Cl   3.002278   3.110435   3.980067   1.531643   0.000000
 Stoichiometry    ClNO3
 Framework group  C1[X(ClNO3)]
 Deg. of freedom     9
 Full point group                 C1      NOp   1
 Largest Abelian subgroup         C1      NOp   1
 Largest concise Abelian subgroup C1      NOp   1
                         Standard orientation:                         
 ---------------------------------------------------------------------
 Center     Atomic      Atomic             Coordinates (Angstroms)
 Number     Number       Type             X           Y           Z
 ---------------------------------------------------------------------
      1          7           0        1.250420    0.050682    0.000011
      2          8           0        1.184990    1.209169    0.000077
      3          8           0        2.134335   -0.694247   -0.000013
      4          8           0       -0.696396   -0.935429   -0.000006
      5         17           0       -1.749199    0.177016   -0.000032
 ---------------------------------------------------------------------
 Rotational constants (GHZ):          10.9337064           2.1789286           1.8168557
 Standard basis: 6-311++G(3df,3pd) (5D, 7F)
 There are   233 symmetry adapted cartesian basis functions of A   symmetry.
 There are   203 symmetry adapted basis functions of A   symmetry.
   203 basis functions,   307 primitive gaussians,   233 cartesian basis functions
    24 alpha electrons       24 beta electrons
       nuclear repulsion energy       213.6509186662 Hartrees.
 NAtoms=    5 NActive=    5 NUniq=    5 SFac= 1.00D+00 NAtFMM=   60 NAOKFM=F Big=F
 Integral buffers will be    131072 words long.
 Raffenetti 1 integral format.
 Two-electron integral symmetry is turned on.
 One-electron integrals computed using PRISM.
 NBasis=   203 RedAO= T EigKep=  1.54D-04  NBF=   203
 NBsUse=   203 1.00D-06 EigRej= -1.00D+00 NBFU=   203
 Initial guess from the checkpoint file:  "/localscratch/alrebei.28376424.0/Gau-11822.chk"
 B after Tr=     0.000000    0.000000   -0.000000
         Rot=    0.999999    0.000001    0.000002    0.001412 Ang=   0.16 deg.
 Keep R1 ints in memory in canonical form, NReq=220787261.
 Gradient too large for Newton-Raphson -- use scaled steepest descent instead.
 Gradient too large for Newton-Raphson -- use scaled steepest descent instead.
 Gradient too large for Newton-Raphson -- use scaled steepest descent instead.
 Gradient too large for Newton-Raphson -- use scaled steepest descent instead.
     Accept linear search using points  1 and  2.
 Gradient too large for Newton-Raphson -- use scaled steepest descent instead.
     Accept linear search using points  4 and  5.
     Minimum is close to point  5 DX= -1.49D-01 DF= -3.22D-07 DXR=  8.99D-02 DFR=  7.29D-03 which will be used.
 Gradient too large for Newton-Raphson -- use scaled steepest descent instead.
 LinEq1:  Iter=  0 NonCon=     1 RMS=6.57D-05 Max=1.74D-03 NDo=     1
 AX will form     1 AO Fock derivatives at one time.
 LinEq1:  Iter=  1 NonCon=     1 RMS=1.51D-05 Max=2.84D-04 NDo=     1
 LinEq1:  Iter=  2 NonCon=     1 RMS=8.83D-06 Max=2.67D-04 NDo=     1
 LinEq1:  Iter=  3 NonCon=     1 RMS=4.02D-06 Max=1.56D-04 NDo=     1
 LinEq1:  Iter=  4 NonCon=     1 RMS=2.12D-06 Max=6.18D-05 NDo=     1
 LinEq1:  Iter=  5 NonCon=     1 RMS=9.48D-07 Max=2.38D-05 NDo=     1
 LinEq1:  Iter=  6 NonCon=     1 RMS=5.46D-07 Max=1.05D-05 NDo=     1
 LinEq1:  Iter=  7 NonCon=     1 RMS=1.74D-07 Max=3.06D-06 NDo=     1
 LinEq1:  Iter=  8 NonCon=     1 RMS=5.95D-08 Max=1.10D-06 NDo=     1
 LinEq1:  Iter=  9 NonCon=     1 RMS=1.92D-08 Max=6.30D-07 NDo=     1
 LinEq1:  Iter= 10 NonCon=     1 RMS=1.18D-08 Max=2.36D-07 NDo=     1
 LinEq1:  Iter= 11 NonCon=     0 RMS=3.36D-09 Max=6.05D-08 NDo=     1
 Linear equations converged to 9.269D-09 9.269D-08 after    11 iterations.
     Accept linear search using points  1 and  2.
     Minimum is close to point  2 DX= -8.72D-04 DF= -3.75D-11 DXR=  8.72D-04 DFR=  7.61D-07 which will be used.
 LinEq1:  Iter=  0 NonCon=     1 RMS=3.34D-07 Max=1.74D-05 NDo=     1
 LinEq1:  Iter=  1 NonCon=     1 RMS=1.04D-07 Max=2.42D-06 NDo=     1
 LinEq1:  Iter=  2 NonCon=     1 RMS=4.61D-08 Max=1.06D-06 NDo=     1
 LinEq1:  Iter=  3 NonCon=     1 RMS=2.07D-08 Max=3.61D-07 NDo=     1
 LinEq1:  Iter=  4 NonCon=     1 RMS=7.92D-09 Max=2.93D-07 NDo=     1
 LinEq1:  Iter=  5 NonCon=     1 RMS=3.94D-09 Max=6.79D-08 NDo=     1
 LinEq1:  Iter=  6 NonCon=     1 RMS=1.69D-09 Max=4.84D-08 NDo=     1
 LinEq1:  Iter=  7 NonCon=     1 RMS=7.48D-10 Max=2.57D-08 NDo=     1
 LinEq1:  Iter=  8 NonCon=     1 RMS=4.84D-10 Max=1.52D-08 NDo=     1
 LinEq1:  Iter=  9 NonCon=     1 RMS=1.84D-10 Max=4.54D-09 NDo=     1
 LinEq1:  Iter= 10 NonCon=     0 RMS=5.52D-11 Max=1.25D-09 NDo=     1
 Linear equations converged to 2.348D-10 2.348D-09 after    10 iterations.
 SCF Done:  E(RHF) =  -738.305197282     a.u. after    9 cycles
            Convg  =    0.2577D-07                    44 Fock formations.
              S**2 =  0.0000                  -V/T =  2.0006
 ExpMin= 4.83D-02 ExpMax= 1.06D+05 ExpMxC= 3.62D+03 IAcc=3 IRadAn=         5 AccDes= 0.00D+00
 HarFok:  IExCor=  205 AccDes= 0.00D+00 IRadAn=         5 IDoV=-2 UseB2=F ITyADJ=14
 ICtDFT= 12500011 ScaDFX=  1.000000  1.000000  1.000000  1.000000
 Range of M.O.s used for correlation:    10   203
 NBasis=   203 NAE=    24 NBE=    24 NFC=     9 NFV=     0
 NROrb=    194 NOA=    15 NOB=    15 NVA=   179 NVB=   179

 **** Warning!!: The largest alpha MO coefficient is  0.28870852D+02

 Orbital symmetries:
       Occupied  (A) (A) (A) (A) (A) (A) (A) (A) (A) (A) (A) (A)
                 (A) (A) (A) (A) (A) (A) (A) (A) (A) (A) (A) (A)
       Virtual   (A) (A) (A) (A) (A) (A) (A) (A) (A) (A) (A) (A)
                 (A) (A) (A) (A) (A) (A) (A) (A) (A) (A) (A) (A)
                 (A) (A) (A) (A) (A) (A) (A) (A) (A) (A) (A) (A)
                 (A) (A) (A) (A) (A) (A) (A) (A) (A) (A) (A) (A)
                 (A) (A) (A) (A) (A) (A) (A) (A) (A) (A) (A) (A)
                 (A) (A) (A) (A) (A) (A) (A) (A) (A) (A) (A) (A)
                 (A) (A) (A) (A) (A) (A) (A) (A) (A) (A) (A) (A)
                 (A) (A) (A) (A) (A) (A) (A) (A) (A) (A) (A) (A)
                 (A) (A) (A) (A) (A) (A) (A) (A) (A) (A) (A) (A)
                 (A) (A) (A) (A) (A) (A) (A) (A) (A) (A) (A) (A)
                 (A) (A) (A) (A) (A) (A) (A) (A) (A) (A) (A) (A)
                 (A) (A) (A) (A) (A) (A) (A) (A) (A) (A) (A) (A)
                 (A) (A) (A) (A) (A) (A) (A) (A) (A) (A) (A) (A)
                 (A) (A) (A) (A) (A) (A) (A) (A) (A) (A) (A) (A)
                 (A) (A) (A) (A) (A) (A) (A) (A) (A) (A) (A)
 Generating guess from densities on rwf.
 Convergence on wavefunction:    0.000001000000000
 Iteration     1 Dimension     3 NMult     0 NNew      3
 CISAX will form     3 AO SS matrices at one time.
 Iteration     2 Dimension     6 NMult     3 NNew      3
 Iteration     3 Dimension     9 NMult     6 NNew      3
 Iteration     4 Dimension    12 NMult     9 NNew      3
 Iteration     5 Dimension    15 NMult    12 NNew      3
 Iteration     6 Dimension    18 NMult    15 NNew      3
 Iteration     7 Dimension    21 NMult    18 NNew      3
 Iteration     8 Dimension    24 NMult    21 NNew      3
 Iteration     9 Dimension    27 NMult    24 NNew      3
 Iteration    10 Dimension    30 NMult    27 NNew      3
 Iteration    11 Dimension    33 NMult    30 NNew      3
 Iteration    12 Dimension    35 NMult    33 NNew      2
 Iteration    13 Dimension    37 NMult    35 NNew      2
 Iteration    14 Dimension    39 NMult    37 NNew      2
 Iteration    15 Dimension    41 NMult    39 NNew      2
 ***********************************************************************
 Excited states from <AA,BB:AA,BB> singles matrix:
 ***********************************************************************
 
 Ground to excited state transition densities written to RWF  633
 Ground to excited state transition electric dipole moments (Au):
       state          X           Y           Z        Dip. S.      Osc.
         1         0.0000      0.0000      0.0087      0.0001      0.0000
         2         2.7478      0.4030      0.0000      7.7127      0.8288
         3         0.0001      0.0000      0.0113      0.0001      0.0000
 Ground to excited state transition velocity dipole moments (Au):
       state          X           Y           Z        Dip. S.      Osc.
         1         0.0000     -0.0000     -0.0356      0.0013      0.0136
         2        -0.1854     -0.0172     -0.0000      0.0347      0.1433
         3        -0.0000      0.0000      0.0137      0.0002      0.0007
 Ground to excited state transition magnetic dipole moments (Au):
       state          X           Y           Z
         1        -0.3831      0.6394     -0.0000
         2        -0.0000      0.0001     -0.8606
         3         0.3832     -0.1410     -0.0000
 Ground to excited state transition velocity quadrupole moments (Au):
       state          XX          YY          ZZ          XY          XZ          YZ
         1         0.0000     -0.0000     -0.0000     -0.0000      0.0163      0.0205
         2        -0.2033     -0.2812      0.0764     -0.1684      0.0000     -0.0000
         3        -0.0000     -0.0000      0.0000      0.0000     -0.0127      0.0689
 <0|del|b> * <b|rxdel|0> + <0|del|b> * <b|delr+rdel|0>
 Rotatory Strengths (R) in cgs (10**-40 erg-esu-cm/Gauss)
       state          XX          YY          ZZ    R(velocity)    E-M Angle
         1        -0.0007     -0.0003     -0.0051     -0.0020       90.00
         2         0.0113      0.0397      0.0050      0.0186       90.00
         3        -0.0007     -0.0088     -0.0054     -0.0049       90.00
 1/2[<0|r|b>*<b|rxdel|0> + (<0|rxdel|b>*<b|r|0>)*]
 Rotatory Strengths (R) in cgs (10**-40 erg-esu-cm/Gauss)
       state          XX          YY          ZZ     R(length)
         1         0.0004     -0.0004      0.0001      0.0000
         2         0.0923     -0.0211      0.0219      0.0310
         3        -0.0217      0.0004      0.0003     -0.0070
  1/2[<0|del|b>*<b|r|0> + (<0|r|b>*<b|del|0>)*] (Au)
       state          X           Y           Z        Dip. S.   Osc.(frdel)
         1         0.0000     -0.0000     -0.0003      0.0003      0.0002
         2        -0.5093     -0.0069     -0.0000      0.5163      0.3442
         3        -0.0000      0.0000      0.0002     -0.0002     -0.0001

 Excitation energies and oscillator strengths:
 
 Excited State   1:      Singlet-A      1.6889 eV  734.09 nm  f=0.0000  <S**2>=0.000
      18 -> 25        -0.22409
      23 -> 25         0.66150
 This state for optimization and/or second-order correction.
 Total Energy, E(CIS/TDA) =  -738.243129820    
 Copying the excited state density for this state as the 1-particle RhoCI density.
 
 Excited State   2:      Singlet-A      4.3859 eV  282.69 nm  f=0.8288  <S**2>=0.000
      24 -> 25         0.67111
 
 Excited State   3:      Singlet-A      4.7963 eV  258.50 nm  f=0.0000  <S**2>=0.000
      22 -> 25         0.65720
      24 -> 26         0.22150
 SavETr:  write IOETrn=   770 NScale= 10 NData=  16 NLR=1 NState=    3 LETran=      64.
          IDoAtm=11111
          Differentiating once with respect to electric field.
                with respect to dipole field.
          Differentiating once with respect to nuclear coordinates.
 Keep R1 ints in memory in canonical form, NReq=220788045.
          There are     1 degrees of freedom in the 1st order CPHF.  IDoFFX=0 NUNeed=     1.
 LinEq1:  Iter=  0 NonCon=     1 RMS=1.49D-02 Max=8.19D-01 NDo=     1
 AX will form     1 AO Fock derivatives at one time.
 LinEq1:  Iter=  1 NonCon=     1 RMS=4.89D-03 Max=1.05D-01 NDo=     1
 LinEq1:  Iter=  2 NonCon=     1 RMS=2.49D-03 Max=4.96D-02 NDo=     1
 LinEq1:  Iter=  3 NonCon=     1 RMS=8.95D-04 Max=1.76D-02 NDo=     1
 LinEq1:  Iter=  4 NonCon=     1 RMS=5.05D-04 Max=1.29D-02 NDo=     1
 LinEq1:  Iter=  5 NonCon=     1 RMS=1.64D-04 Max=1.99D-03 NDo=     1
 LinEq1:  Iter=  6 NonCon=     1 RMS=6.13D-05 Max=2.25D-03 NDo=     1
 LinEq1:  Iter=  7 NonCon=     1 RMS=3.42D-05 Max=9.93D-04 NDo=     1
 LinEq1:  Iter=  8 NonCon=     1 RMS=1.21D-05 Max=3.22D-04 NDo=     1
 LinEq1:  Iter=  9 NonCon=     1 RMS=3.49D-06 Max=7.03D-05 NDo=     1
 LinEq1:  Iter= 10 NonCon=     1 RMS=9.27D-07 Max=2.65D-05 NDo=     1
 LinEq1:  Iter= 11 NonCon=     1 RMS=2.70D-07 Max=6.39D-06 NDo=     1
 LinEq1:  Iter= 12 NonCon=     1 RMS=6.89D-08 Max=9.28D-07 NDo=     1
 LinEq1:  Iter= 13 NonCon=     1 RMS=1.73D-08 Max=1.78D-07 NDo=     1
 LinEq1:  Iter= 14 NonCon=     1 RMS=3.83D-09 Max=8.45D-08 NDo=     1
 LinEq1:  Iter= 15 NonCon=     1 RMS=7.80D-10 Max=1.38D-08 NDo=     1
 LinEq1:  Iter= 16 NonCon=     1 RMS=1.85D-10 Max=4.72D-09 NDo=     1
 LinEq1:  Iter= 17 NonCon=     0 RMS=4.13D-11 Max=8.17D-10 NDo=     1
 Linear equations converged to 1.000D-10 1.000D-09 after    17 iterations.
 End of Minotr F.D. properties file   721 does not exist.
 End of Minotr F.D. properties file   722 does not exist.
 End of Minotr F.D. properties file   788 does not exist.
 Calling FoFJK, ICntrl=  10005127 FMM=F ISym2X=0 I1Cent= 0 IOpClX= 0 NMat=1 NMatS=1 NMatT=0.
 ***** Axes restored to original set *****
 -------------------------------------------------------------------
 Center     Atomic                   Forces (Hartrees/Bohr)
 Number     Number              X              Y              Z
 -------------------------------------------------------------------
      1        7           0.001807091    0.000320297    0.000000646
      2        8          -0.000455441   -0.000617135   -0.000000090
      3        8          -0.001014424    0.000417216   -0.000000381
      4        8          -0.006081329    0.005826719   -0.000000490
      5       17           0.005744102   -0.005947097    0.000000314
 -------------------------------------------------------------------
 Cartesian Forces:  Max     0.006081329 RMS     0.003103283

 GradGradGradGradGradGradGradGradGradGradGradGradGradGradGradGradGradGrad
 Berny optimization.
 Using GEDIIS/GDIIS optimizer.
 FormGI is forming the generalized inverse of G from B-inverse, IUseBI=4.
 Internal  Forces:  Max     0.008267786 RMS     0.002532546
 Search for a local minimum.
 Step number   2 out of a maximum of   21
 All quantities printed in internal units (Hartrees-Bohrs-Radians)
 Mixed Optimization -- RFO/linear search
 Update second derivatives using D2CorX and points    1    2
 DE= -5.48D-04 DEPred=-3.98D-04 R= 1.38D+00
 TightC=F SS=  1.41D+00  RLast= 3.55D-02 DXNew= 5.0454D-01 1.0648D-01
 Trust test= 1.38D+00 RLast= 3.55D-02 DXMaxT set to 3.00D-01
 The second derivative matrix:
                          R1        R2        R3        R4        A1
           R1           1.27442
           R2           0.01383   1.29558
           R3           0.00255   0.00293   0.06199
           R4          -0.02123  -0.03369   0.00937   0.39203
           A1           0.00574   0.00627  -0.00024   0.01570   0.24994
           A2          -0.00526  -0.00562   0.00012  -0.01231  -0.00014
           A3          -0.00048  -0.00065   0.00012  -0.00340   0.00019
           A4          -0.00213  -0.00222   0.00000  -0.00407  -0.00014
           D1           0.00000   0.00000  -0.00000   0.00001  -0.00000
           D2          -0.00000  -0.00000  -0.00000  -0.00000  -0.00000
           D3          -0.00000  -0.00000  -0.00000  -0.00001  -0.00000
                          A2        A3        A4        D1        D2
           A2           0.25028
           A3          -0.00014   0.24995
           A4           0.00018  -0.00004   0.25010
           D1           0.00000   0.00000   0.00000   0.04483
           D2           0.00000  -0.00000   0.00000  -0.00000   0.00230
           D3           0.00000  -0.00000   0.00000   0.00000   0.00000
                          D3
           D3           0.00230
 ITU=  1  0
 Use linear search instead of GDIIS.
     Eigenvalues ---    0.00230   0.03465   0.06170   0.24694   0.25000
     Eigenvalues ---    0.25011   0.39367   1.26761   1.30425
 RFO step:  Lambda=-1.59927179D-05 EMin= 2.30000015D-03
 Quartic linear search produced a step of  0.54107.
 Iteration  1 RMS(Cart)=  0.00483431 RMS(Int)=  0.00000706
 Iteration  2 RMS(Cart)=  0.00001145 RMS(Int)=  0.00000001
 Iteration  3 RMS(Cart)=  0.00000000 RMS(Int)=  0.00000001
 Variable       Old X    -DE/DX   Delta X   Delta X   Delta X     New X
                                 (Linear)    (Quad)   (Total)
    R1        2.19271  -0.00059  -0.00279   0.00203  -0.00076   2.19195
    R2        2.18443  -0.00105  -0.00307   0.00177  -0.00130   2.18313
    R3        4.12398   0.00035   0.00378   0.00328   0.00706   4.13104
    R4        2.89439  -0.00827  -0.01834  -0.00192  -0.02025   2.87413
    A1        2.32749   0.00060   0.00079   0.00285   0.00363   2.33113
    A2        1.98323  -0.00048  -0.00021  -0.00272  -0.00292   1.98031
    A3        1.97246  -0.00012  -0.00058  -0.00013  -0.00071   1.97175
    A4        1.85980  -0.00016   0.00014  -0.00115  -0.00101   1.85880
    D1        3.14155   0.00000   0.00001  -0.00000   0.00001   3.14156
    D2        0.00007  -0.00000   0.00002  -0.00046  -0.00044  -0.00037
    D3       -3.14155   0.00000   0.00003  -0.00047  -0.00044   3.14120
         Item               Value     Threshold  Converged?
 Maximum Force            0.008268     0.000450     NO 
 RMS     Force            0.002533     0.000300     NO 
 Maximum Displacement     0.011307     0.001800     NO 
 RMS     Displacement     0.004832     0.001200     NO 
 Predicted change in Energy=-9.395497D-05
 GradGradGradGradGradGradGradGradGradGradGradGradGradGradGradGradGradGrad

                          Input orientation:                          
 ---------------------------------------------------------------------
 Center     Atomic      Atomic             Coordinates (Angstroms)
 Number     Number       Type             X           Y           Z
 ---------------------------------------------------------------------
      1          7           0        1.252545    0.054712   -0.000010
      2          8           0        1.181415    1.212458   -0.000037
      3          8           0        2.136904   -0.688618    0.000138
      4          8           0       -0.695607   -0.937020   -0.000233
      5         17           0       -1.742160    0.166582    0.000157
 ---------------------------------------------------------------------
                    Distance matrix (angstroms):
                    1          2          3          4          5
     1  N    0.000000
     2  O    1.159930   0.000000
     3  O    1.155262   2.127686   0.000000
     4  O    2.186053   2.853677   2.843382   0.000000
     5  Cl   2.996794   3.105020   3.972217   1.520925   0.000000
 Stoichiometry    ClNO3
 Framework group  C1[X(ClNO3)]
 Deg. of freedom     9
 Full point group                 C1      NOp   1
 Largest Abelian subgroup         C1      NOp   1
 Largest concise Abelian subgroup C1      NOp   1
                         Standard orientation:                         
 ---------------------------------------------------------------------
 Center     Atomic      Atomic             Coordinates (Angstroms)
 Number     Number       Type             X           Y           Z
 ---------------------------------------------------------------------
      1          7           0        1.250041    0.050451   -0.000042
      2          8           0        1.184607    1.208533   -0.000069
      3          8           0        2.130734   -0.697219    0.000107
      4          8           0       -0.702964   -0.931687   -0.000265
      5         17           0       -1.744077    0.177049    0.000125
 ---------------------------------------------------------------------
 Rotational constants (GHZ):          10.9503113           2.1860149           1.8222404
 Standard basis: 6-311++G(3df,3pd) (5D, 7F)
 There are   233 symmetry adapted cartesian basis functions of A   symmetry.
 There are   203 symmetry adapted basis functions of A   symmetry.
   203 basis functions,   307 primitive gaussians,   233 cartesian basis functions
    24 alpha electrons       24 beta electrons
       nuclear repulsion energy       214.0791887580 Hartrees.
 NAtoms=    5 NActive=    5 NUniq=    5 SFac= 1.00D+00 NAtFMM=   60 NAOKFM=F Big=F
 Integral buffers will be    131072 words long.
 Raffenetti 1 integral format.
 Two-electron integral symmetry is turned on.
 One-electron integrals computed using PRISM.
 NBasis=   203 RedAO= T EigKep=  1.52D-04  NBF=   203
 NBsUse=   203 1.00D-06 EigRej= -1.00D+00 NBFU=   203
 Initial guess from the checkpoint file:  "/localscratch/alrebei.28376424.0/Gau-11822.chk"
 B after Tr=    -0.000000   -0.000000    0.000000
         Rot=    1.000000   -0.000007   -0.000013    0.000587 Ang=  -0.07 deg.
 Keep R1 ints in memory in canonical form, NReq=220787261.
 Gradient too large for Newton-Raphson -- use scaled steepest descent instead.
 Gradient too large for Newton-Raphson -- use scaled steepest descent instead.
 Gradient too large for Newton-Raphson -- use scaled steepest descent instead.
 Gradient too large for Newton-Raphson -- use scaled steepest descent instead.
     Accept linear search using points  1 and  2.
 LinEq1:  Iter=  0 NonCon=     1 RMS=5.93D-05 Max=1.62D-03 NDo=     1
 AX will form     1 AO Fock derivatives at one time.
 LinEq1:  Iter=  1 NonCon=     1 RMS=1.44D-05 Max=2.94D-04 NDo=     1
 LinEq1:  Iter=  2 NonCon=     1 RMS=9.24D-06 Max=3.02D-04 NDo=     1
 LinEq1:  Iter=  3 NonCon=     1 RMS=5.82D-06 Max=2.83D-04 NDo=     1
 LinEq1:  Iter=  4 NonCon=     1 RMS=1.96D-06 Max=5.32D-05 NDo=     1
 LinEq1:  Iter=  5 NonCon=     1 RMS=8.74D-07 Max=2.47D-05 NDo=     1
 LinEq1:  Iter=  6 NonCon=     1 RMS=4.54D-07 Max=1.03D-05 NDo=     1
 LinEq1:  Iter=  7 NonCon=     1 RMS=1.22D-07 Max=3.61D-06 NDo=     1
 LinEq1:  Iter=  8 NonCon=     1 RMS=6.45D-08 Max=1.29D-06 NDo=     1
 LinEq1:  Iter=  9 NonCon=     1 RMS=3.43D-08 Max=8.30D-07 NDo=     1
 LinEq1:  Iter= 10 NonCon=     1 RMS=1.15D-08 Max=2.81D-07 NDo=     1
 LinEq1:  Iter= 11 NonCon=     1 RMS=3.42D-09 Max=1.34D-07 NDo=     1
 LinEq1:  Iter= 12 NonCon=     0 RMS=1.25D-09 Max=3.50D-08 NDo=     1
 Linear equations converged to 9.269D-09 9.269D-08 after    12 iterations.
     Accept linear search using points  1 and  2.
     Minimum is close to point  2 DX= -5.28D-04 DF= -1.24D-11 DXR=  5.29D-04 DFR=  2.80D-07 which will be used.
 LinEq1:  Iter=  0 NonCon=     1 RMS=2.34D-07 Max=1.26D-05 NDo=     1
 LinEq1:  Iter=  1 NonCon=     1 RMS=7.62D-08 Max=1.60D-06 NDo=     1
 LinEq1:  Iter=  2 NonCon=     1 RMS=3.35D-08 Max=7.20D-07 NDo=     1
 LinEq1:  Iter=  3 NonCon=     1 RMS=1.58D-08 Max=2.35D-07 NDo=     1
 LinEq1:  Iter=  4 NonCon=     1 RMS=7.15D-09 Max=2.61D-07 NDo=     1
 LinEq1:  Iter=  5 NonCon=     1 RMS=3.84D-09 Max=1.12D-07 NDo=     1
 LinEq1:  Iter=  6 NonCon=     1 RMS=1.59D-09 Max=5.14D-08 NDo=     1
 LinEq1:  Iter=  7 NonCon=     1 RMS=7.86D-10 Max=2.06D-08 NDo=     1
 LinEq1:  Iter=  8 NonCon=     1 RMS=4.80D-10 Max=1.16D-08 NDo=     1
 LinEq1:  Iter=  9 NonCon=     1 RMS=1.99D-10 Max=3.53D-09 NDo=     1
 LinEq1:  Iter= 10 NonCon=     0 RMS=5.58D-11 Max=7.77D-10 NDo=     1
 Linear equations converged to 1.533D-10 1.533D-09 after    10 iterations.
 SCF Done:  E(RHF) =  -738.304336668     a.u. after    7 cycles
            Convg  =    0.6441D-07                    37 Fock formations.
              S**2 =  0.0000                  -V/T =  2.0005
 ExpMin= 4.83D-02 ExpMax= 1.06D+05 ExpMxC= 3.62D+03 IAcc=3 IRadAn=         5 AccDes= 0.00D+00
 HarFok:  IExCor=  205 AccDes= 0.00D+00 IRadAn=         5 IDoV=-2 UseB2=F ITyADJ=14
 ICtDFT= 12500011 ScaDFX=  1.000000  1.000000  1.000000  1.000000
 Range of M.O.s used for correlation:    10   203
 NBasis=   203 NAE=    24 NBE=    24 NFC=     9 NFV=     0
 NROrb=    194 NOA=    15 NOB=    15 NVA=   179 NVB=   179

 **** Warning!!: The largest alpha MO coefficient is  0.29235788D+02

 Orbital symmetries:
       Occupied  (A) (A) (A) (A) (A) (A) (A) (A) (A) (A) (A) (A)
                 (A) (A) (A) (A) (A) (A) (A) (A) (A) (A) (A) (A)
       Virtual   (A) (A) (A) (A) (A) (A) (A) (A) (A) (A) (A) (A)
                 (A) (A) (A) (A) (A) (A) (A) (A) (A) (A) (A) (A)
                 (A) (A) (A) (A) (A) (A) (A) (A) (A) (A) (A) (A)
                 (A) (A) (A) (A) (A) (A) (A) (A) (A) (A) (A) (A)
                 (A) (A) (A) (A) (A) (A) (A) (A) (A) (A) (A) (A)
                 (A) (A) (A) (A) (A) (A) (A) (A) (A) (A) (A) (A)
                 (A) (A) (A) (A) (A) (A) (A) (A) (A) (A) (A) (A)
                 (A) (A) (A) (A) (A) (A) (A) (A) (A) (A) (A) (A)
                 (A) (A) (A) (A) (A) (A) (A) (A) (A) (A) (A) (A)
                 (A) (A) (A) (A) (A) (A) (A) (A) (A) (A) (A) (A)
                 (A) (A) (A) (A) (A) (A) (A) (A) (A) (A) (A) (A)
                 (A) (A) (A) (A) (A) (A) (A) (A) (A) (A) (A) (A)
                 (A) (A) (A) (A) (A) (A) (A) (A) (A) (A) (A) (A)
                 (A) (A) (A) (A) (A) (A) (A) (A) (A) (A) (A) (A)
                 (A) (A) (A) (A) (A) (A) (A) (A) (A) (A) (A)
 Generating guess from densities on rwf.
 Convergence on wavefunction:    0.000001000000000
 Iteration     1 Dimension     3 NMult     0 NNew      3
 CISAX will form     3 AO SS matrices at one time.
 Iteration     2 Dimension     6 NMult     3 NNew      3
 Iteration     3 Dimension     9 NMult     6 NNew      3
 Iteration     4 Dimension    12 NMult     9 NNew      3
 Iteration     5 Dimension    15 NMult    12 NNew      3
 Iteration     6 Dimension    18 NMult    15 NNew      3
 Iteration     7 Dimension    21 NMult    18 NNew      3
 Iteration     8 Dimension    24 NMult    21 NNew      3
 Iteration     9 Dimension    26 NMult    24 NNew      2
 Iteration    10 Dimension    28 NMult    26 NNew      2
 Iteration    11 Dimension    30 NMult    28 NNew      2
 Iteration    12 Dimension    32 NMult    30 NNew      2
 Iteration    13 Dimension    34 NMult    32 NNew      2
 Iteration    14 Dimension    36 NMult    34 NNew      2
 Iteration    15 Dimension    38 NMult    36 NNew      2
 Iteration    16 Dimension    39 NMult    38 NNew      1
 Iteration    17 Dimension    40 NMult    39 NNew      1
 Iteration    18 Dimension    41 NMult    40 NNew      1
 Iteration    19 Dimension    42 NMult    41 NNew      1
 Iteration    20 Dimension    43 NMult    42 NNew      1
 ***********************************************************************
 Excited states from <AA,BB:AA,BB> singles matrix:
 ***********************************************************************
 
 Ground to excited state transition densities written to RWF  633
 Ground to excited state transition electric dipole moments (Au):
       state          X           Y           Z        Dip. S.      Osc.
         1         0.0000      0.0000      0.0086      0.0001      0.0000
         2         2.7688      0.3961      0.0000      7.8233      0.8372
         3         0.0005      0.0001      0.0433      0.0019      0.0002
 Ground to excited state transition velocity dipole moments (Au):
       state          X           Y           Z        Dip. S.      Osc.
         1        -0.0000      0.0000     -0.0353      0.0012      0.0136
         2        -0.1823     -0.0177      0.0000      0.0335      0.1393
         3        -0.0000     -0.0000      0.0295      0.0009      0.0033
 Ground to excited state transition magnetic dipole moments (Au):
       state          X           Y           Z
         1        -0.3850      0.6427      0.0002
         2        -0.0001      0.0004     -0.8489
         3         0.5665     -0.6523     -0.0001
 Ground to excited state transition velocity quadrupole moments (Au):
       state          XX          YY          ZZ          XY          XZ          YZ
         1         0.0000     -0.0000      0.0000      0.0000      0.0159      0.0194
         2        -0.2150     -0.2835      0.0763     -0.1667     -0.0001      0.0000
         3        -0.0001     -0.0000      0.0000     -0.0000      0.0287      0.0370
 <0|del|b> * <b|rxdel|0> + <0|del|b> * <b|delr+rdel|0>
 Rotatory Strengths (R) in cgs (10**-40 erg-esu-cm/Gauss)
       state          XX          YY          ZZ    R(velocity)    E-M Angle
         1        -0.0124     -0.0264      0.0447      0.0020       90.00
         2        -0.0204      0.0363      0.0563      0.0241       90.00
         3        -0.0052     -0.0571     -0.0486     -0.0370       90.00
 1/2[<0|r|b>*<b|rxdel|0> + (<0|rxdel|b>*<b|r|0>)*]
 Rotatory Strengths (R) in cgs (10**-40 erg-esu-cm/Gauss)
       state          XX          YY          ZZ     R(length)
         1         0.0003     -0.0011     -0.0012     -0.0007
         2         0.2522     -0.1007      0.0035      0.0516
         3        -0.1998      0.0387      0.0018     -0.0531
  1/2[<0|del|b>*<b|r|0> + (<0|r|b>*<b|del|0>)*] (Au)
       state          X           Y           Z        Dip. S.   Osc.(frdel)
         1        -0.0000      0.0000     -0.0003      0.0003      0.0002
         2        -0.5047     -0.0070      0.0000      0.5117      0.3411
         3        -0.0000     -0.0000      0.0013     -0.0013     -0.0008

 Excitation energies and oscillator strengths:
 
 Excited State   1:      Singlet-A      1.6631 eV  745.49 nm  f=0.0000  <S**2>=0.000
      18 -> 25        -0.21673
      23 -> 25         0.66404
 This state for optimization and/or second-order correction.
 Total Energy, E(CIS/TDA) =  -738.243218044    
 Copying the excited state density for this state as the 1-particle RhoCI density.
 
 Excited State   2:      Singlet-A      4.3679 eV  283.85 nm  f=0.8372  <S**2>=0.000
      24 -> 25         0.67176
 
 Excited State   3:      Singlet-A      4.7938 eV  258.63 nm  f=0.0002  <S**2>=0.000
      20 -> 26        -0.13359
      22 -> 25         0.36449
      24 -> 26         0.58207
 SavETr:  write IOETrn=   770 NScale= 10 NData=  16 NLR=1 NState=    3 LETran=      64.
          IDoAtm=11111
          Differentiating once with respect to electric field.
                with respect to dipole field.
          Differentiating once with respect to nuclear coordinates.
 Keep R1 ints in memory in canonical form, NReq=220788045.
          There are     1 degrees of freedom in the 1st order CPHF.  IDoFFX=0 NUNeed=     1.
 LinEq1:  Iter=  0 NonCon=     1 RMS=1.49D-02 Max=8.24D-01 NDo=     1
 AX will form     1 AO Fock derivatives at one time.
 LinEq1:  Iter=  1 NonCon=     1 RMS=4.85D-03 Max=1.07D-01 NDo=     1
 LinEq1:  Iter=  2 NonCon=     1 RMS=2.46D-03 Max=5.25D-02 NDo=     1
 LinEq1:  Iter=  3 NonCon=     1 RMS=8.90D-04 Max=1.76D-02 NDo=     1
 LinEq1:  Iter=  4 NonCon=     1 RMS=4.93D-04 Max=1.27D-02 NDo=     1
 LinEq1:  Iter=  5 NonCon=     1 RMS=1.64D-04 Max=1.87D-03 NDo=     1
 LinEq1:  Iter=  6 NonCon=     1 RMS=6.01D-05 Max=2.23D-03 NDo=     1
 LinEq1:  Iter=  7 NonCon=     1 RMS=3.37D-05 Max=9.44D-04 NDo=     1
 LinEq1:  Iter=  8 NonCon=     1 RMS=1.22D-05 Max=3.41D-04 NDo=     1
 LinEq1:  Iter=  9 NonCon=     1 RMS=3.55D-06 Max=7.12D-05 NDo=     1
 LinEq1:  Iter= 10 NonCon=     1 RMS=9.18D-07 Max=2.52D-05 NDo=     1
 LinEq1:  Iter= 11 NonCon=     1 RMS=2.59D-07 Max=5.71D-06 NDo=     1
 LinEq1:  Iter= 12 NonCon=     1 RMS=6.57D-08 Max=8.80D-07 NDo=     1
 LinEq1:  Iter= 13 NonCon=     1 RMS=1.65D-08 Max=1.57D-07 NDo=     1
 LinEq1:  Iter= 14 NonCon=     1 RMS=3.69D-09 Max=8.11D-08 NDo=     1
 LinEq1:  Iter= 15 NonCon=     1 RMS=7.51D-10 Max=1.35D-08 NDo=     1
 LinEq1:  Iter= 16 NonCon=     1 RMS=1.81D-10 Max=4.47D-09 NDo=     1
 LinEq1:  Iter= 17 NonCon=     1 RMS=4.49D-11 Max=1.35D-09 NDo=     1
 LinEq1:  Iter= 18 NonCon=     0 RMS=1.74D-11 Max=6.71D-10 NDo=     1
 Linear equations converged to 1.000D-10 1.000D-09 after    18 iterations.
 End of Minotr F.D. properties file   721 does not exist.
 End of Minotr F.D. properties file   722 does not exist.
 End of Minotr F.D. properties file   788 does not exist.
 Calling FoFJK, ICntrl=  10005127 FMM=F ISym2X=0 I1Cent= 0 IOpClX= 0 NMat=1 NMatS=1 NMatT=0.
 ***** Axes restored to original set *****
 -------------------------------------------------------------------
 Center     Atomic                   Forces (Hartrees/Bohr)
 Number     Number              X              Y              Z
 -------------------------------------------------------------------
      1        7          -0.000223241   -0.000443447    0.000001700
      2        8           0.000111226    0.000188089   -0.000000620
      3        8           0.000305157    0.000258408   -0.000000849
      4        8          -0.000228012   -0.000088223    0.000000601
      5       17           0.000034871    0.000085174   -0.000000833
 -------------------------------------------------------------------
 Cartesian Forces:  Max     0.000443447 RMS     0.000186615

 GradGradGradGradGradGradGradGradGradGradGradGradGradGradGradGradGradGrad
 Berny optimization.
 Using GEDIIS/GDIIS optimizer.
 FormGI is forming the generalized inverse of G from B-inverse, IUseBI=4.
 Internal  Forces:  Max     0.000484130 RMS     0.000216294
 Search for a local minimum.
 Step number   3 out of a maximum of   21
 All quantities printed in internal units (Hartrees-Bohrs-Radians)
 Mixed Optimization -- En-DIIS/RFO-DIIS
 Update second derivatives using D2CorX and points    1    2    3
 DE= -8.82D-05 DEPred=-9.40D-05 R= 9.39D-01
 TightC=F SS=  1.41D+00  RLast= 2.20D-02 DXNew= 5.0454D-01 6.6134D-02
 Trust test= 9.39D-01 RLast= 2.20D-02 DXMaxT set to 3.00D-01
 The second derivative matrix:
                          R1        R2        R3        R4        A1
           R1           1.27742
           R2           0.01635   1.29713
           R3           0.00284   0.00347   0.06186
           R4          -0.00899  -0.02647   0.01220   0.41837
           A1           0.00189   0.00210  -0.00011  -0.00306   0.25260
           A2          -0.00574  -0.00650   0.00033  -0.01714  -0.00029
           A3           0.00385   0.00441  -0.00022   0.02020  -0.00232
           A4          -0.00407  -0.00464   0.00023  -0.01565   0.00080
           D1           0.00001   0.00001  -0.00000   0.00004  -0.00000
           D2          -0.00000  -0.00000   0.00000  -0.00001  -0.00000
           D3           0.00000   0.00000  -0.00000   0.00001  -0.00000
                          A2        A3        A4        D1        D2
           A2           0.24992
           A3           0.00036   0.25196
           A4          -0.00018  -0.00062   0.25017
           D1           0.00000   0.00000  -0.00000   0.04483
           D2          -0.00000   0.00000  -0.00000   0.00000   0.00230
           D3           0.00000   0.00000  -0.00000   0.00000   0.00000
                          D3
           D3           0.00230
 ITU=  1  1  0
 Use linear search instead of GDIIS.
     Eigenvalues ---    0.00230   0.03472   0.06140   0.24488   0.25000
     Eigenvalues ---    0.25402   0.42357   1.26822   1.30735
 RFO step:  Lambda=-2.27249461D-06 EMin= 2.30000076D-03
 Quartic linear search produced a step of -0.00507.
 Iteration  1 RMS(Cart)=  0.00142819 RMS(Int)=  0.00000114
 Iteration  2 RMS(Cart)=  0.00000098 RMS(Int)=  0.00000000
 Variable       Old X    -DE/DX   Delta X   Delta X   Delta X     New X
                                 (Linear)    (Quad)   (Total)
    R1        2.19195   0.00018   0.00000   0.00012   0.00013   2.19207
    R2        2.18313   0.00007   0.00001   0.00002   0.00003   2.18316
    R3        4.13104   0.00017  -0.00004   0.00288   0.00284   4.13388
    R4        2.87413   0.00004   0.00010  -0.00025  -0.00015   2.87398
    A1        2.33113  -0.00038  -0.00002  -0.00145  -0.00147   2.32966
    A2        1.98031  -0.00011   0.00001  -0.00046  -0.00045   1.97986
    A3        1.97175   0.00048   0.00000   0.00191   0.00192   1.97367
    A4        1.85880  -0.00024   0.00001  -0.00097  -0.00096   1.85783
    D1        3.14156   0.00000  -0.00000   0.00003   0.00003   3.14158
    D2       -0.00037   0.00000   0.00000   0.00036   0.00037  -0.00000
    D3        3.14120   0.00000   0.00000   0.00038   0.00039   3.14159
         Item               Value     Threshold  Converged?
 Maximum Force            0.000484     0.000450     NO 
 RMS     Force            0.000216     0.000300     YES
 Maximum Displacement     0.002750     0.001800     NO 
 RMS     Displacement     0.001428     0.001200     NO 
 Predicted change in Energy=-1.137506D-06
 GradGradGradGradGradGradGradGradGradGradGradGradGradGradGradGradGradGrad

                          Input orientation:                          
 ---------------------------------------------------------------------
 Center     Atomic      Atomic             Coordinates (Angstroms)
 Number     Number       Type             X           Y           Z
 ---------------------------------------------------------------------
      1          7           0        1.252699    0.054226    0.000012
      2          8           0        1.181362    1.212026    0.000054
      3          8           0        2.138294   -0.687656    0.000001
      4          8           0       -0.697062   -0.937660   -0.000042
      5         17           0       -1.742197    0.167177   -0.000011
 ---------------------------------------------------------------------
                    Distance matrix (angstroms):
                    1          2          3          4          5
     1  N    0.000000
     2  O    1.159996   0.000000
     3  O    1.155278   2.127090   0.000000
     4  O    2.187557   2.854755   2.846357   0.000000
     5  Cl   2.997026   3.104659   3.973532   1.520846   0.000000
 Stoichiometry    ClNO3
 Framework group  C1[X(ClNO3)]
 Deg. of freedom     9
 Full point group                 C1      NOp   1
 Largest Abelian subgroup         C1      NOp   1
 Largest concise Abelian subgroup C1      NOp   1
                         Standard orientation:                         
 ---------------------------------------------------------------------
 Center     Atomic      Atomic             Coordinates (Angstroms)
 Number     Number       Type             X           Y           Z
 ---------------------------------------------------------------------
      1          7           0        1.250201    0.049893    0.000012
      2          8           0        1.184513    1.208027    0.000054
      3          8           0        2.132166   -0.696301    0.000000
      4          8           0       -0.704375   -0.932470   -0.000042
      5         17           0       -1.744108    0.177453   -0.000011
 ---------------------------------------------------------------------
 Rotational constants (GHZ):          10.9532740           2.1847364           1.8214338
 Standard basis: 6-311++G(3df,3pd) (5D, 7F)
 There are   233 symmetry adapted cartesian basis functions of A   symmetry.
 There are   203 symmetry adapted basis functions of A   symmetry.
   203 basis functions,   307 primitive gaussians,   233 cartesian basis functions
    24 alpha electrons       24 beta electrons
       nuclear repulsion energy       214.0531087902 Hartrees.
 NAtoms=    5 NActive=    5 NUniq=    5 SFac= 1.00D+00 NAtFMM=   60 NAOKFM=F Big=F
 Integral buffers will be    131072 words long.
 Raffenetti 1 integral format.
 Two-electron integral symmetry is turned on.
 One-electron integrals computed using PRISM.
 NBasis=   203 RedAO= T EigKep=  1.53D-04  NBF=   203
 NBsUse=   203 1.00D-06 EigRej= -1.00D+00 NBFU=   203
 Initial guess from the checkpoint file:  "/localscratch/alrebei.28376424.0/Gau-11822.chk"
 B after Tr=    -0.000000    0.000000    0.000000
         Rot=    1.000000    0.000006    0.000011    0.000012 Ang=   0.00 deg.
 Keep R1 ints in memory in canonical form, NReq=220787261.
 LinEq1:  Iter=  0 NonCon=     1 RMS=1.62D-05 Max=4.17D-04 NDo=     1
 AX will form     1 AO Fock derivatives at one time.
 LinEq1:  Iter=  1 NonCon=     1 RMS=4.36D-06 Max=1.52D-04 NDo=     1
 LinEq1:  Iter=  2 NonCon=     1 RMS=2.50D-06 Max=6.99D-05 NDo=     1
 LinEq1:  Iter=  3 NonCon=     1 RMS=9.05D-07 Max=2.73D-05 NDo=     1
 LinEq1:  Iter=  4 NonCon=     1 RMS=4.54D-07 Max=9.32D-06 NDo=     1
 LinEq1:  Iter=  5 NonCon=     1 RMS=2.11D-07 Max=5.33D-06 NDo=     1
 LinEq1:  Iter=  6 NonCon=     1 RMS=9.80D-08 Max=2.39D-06 NDo=     1
 LinEq1:  Iter=  7 NonCon=     1 RMS=4.60D-08 Max=1.37D-06 NDo=     1
 LinEq1:  Iter=  8 NonCon=     1 RMS=2.83D-08 Max=8.45D-07 NDo=     1
 LinEq1:  Iter=  9 NonCon=     1 RMS=1.19D-08 Max=2.45D-07 NDo=     1
 LinEq1:  Iter= 10 NonCon=     0 RMS=4.13D-09 Max=7.26D-08 NDo=     1
 Linear equations converged to 9.269D-09 9.269D-08 after    10 iterations.
     Accept linear search using points  1 and  2.
     Minimum is close to point  2 DX= -9.12D-05 DF=  0.00D+00 DXR=  9.12D-05 DFR=  0.00D+00 which will be used.
 LinEq1:  Iter=  0 NonCon=     1 RMS=1.19D-08 Max=3.15D-07 NDo=     1
 LinEq1:  Iter=  1 NonCon=     1 RMS=8.02D-09 Max=2.83D-07 NDo=     1
 LinEq1:  Iter=  2 NonCon=     1 RMS=4.19D-09 Max=1.14D-07 NDo=     1
 LinEq1:  Iter=  3 NonCon=     1 RMS=2.06D-09 Max=4.91D-08 NDo=     1
 LinEq1:  Iter=  4 NonCon=     1 RMS=1.16D-09 Max=3.34D-08 NDo=     1
 LinEq1:  Iter=  5 NonCon=     1 RMS=6.15D-10 Max=1.41D-08 NDo=     1
 LinEq1:  Iter=  6 NonCon=     1 RMS=2.37D-10 Max=6.79D-09 NDo=     1
 LinEq1:  Iter=  7 NonCon=     1 RMS=1.22D-10 Max=2.53D-09 NDo=     1
 LinEq1:  Iter=  8 NonCon=     1 RMS=5.31D-11 Max=2.10D-09 NDo=     1
 LinEq1:  Iter=  9 NonCon=     1 RMS=3.29D-11 Max=7.77D-10 NDo=     1
 LinEq1:  Iter= 10 NonCon=     0 RMS=9.92D-12 Max=1.74D-10 NDo=     1
 Linear equations converged to 2.738D-11 2.738D-10 after    10 iterations.
 SCF Done:  E(RHF) =  -738.304080831     a.u. after    3 cycles
            Convg  =    0.1724D-07                    23 Fock formations.
              S**2 =  0.0000                  -V/T =  2.0005
 ExpMin= 4.83D-02 ExpMax= 1.06D+05 ExpMxC= 3.62D+03 IAcc=3 IRadAn=         5 AccDes= 0.00D+00
 HarFok:  IExCor=  205 AccDes= 0.00D+00 IRadAn=         5 IDoV=-2 UseB2=F ITyADJ=14
 ICtDFT= 12500011 ScaDFX=  1.000000  1.000000  1.000000  1.000000
 Range of M.O.s used for correlation:    10   203
 NBasis=   203 NAE=    24 NBE=    24 NFC=     9 NFV=     0
 NROrb=    194 NOA=    15 NOB=    15 NVA=   179 NVB=   179

 **** Warning!!: The largest alpha MO coefficient is  0.29224221D+02

 Orbital symmetries:
       Occupied  (A) (A) (A) (A) (A) (A) (A) (A) (A) (A) (A) (A)
                 (A) (A) (A) (A) (A) (A) (A) (A) (A) (A) (A) (A)
       Virtual   (A) (A) (A) (A) (A) (A) (A) (A) (A) (A) (A) (A)
                 (A) (A) (A) (A) (A) (A) (A) (A) (A) (A) (A) (A)
                 (A) (A) (A) (A) (A) (A) (A) (A) (A) (A) (A) (A)
                 (A) (A) (A) (A) (A) (A) (A) (A) (A) (A) (A) (A)
                 (A) (A) (A) (A) (A) (A) (A) (A) (A) (A) (A) (A)
                 (A) (A) (A) (A) (A) (A) (A) (A) (A) (A) (A) (A)
                 (A) (A) (A) (A) (A) (A) (A) (A) (A) (A) (A) (A)
                 (A) (A) (A) (A) (A) (A) (A) (A) (A) (A) (A) (A)
                 (A) (A) (A) (A) (A) (A) (A) (A) (A) (A) (A) (A)
                 (A) (A) (A) (A) (A) (A) (A) (A) (A) (A) (A) (A)
                 (A) (A) (A) (A) (A) (A) (A) (A) (A) (A) (A) (A)
                 (A) (A) (A) (A) (A) (A) (A) (A) (A) (A) (A) (A)
                 (A) (A) (A) (A) (A) (A) (A) (A) (A) (A) (A) (A)
                 (A) (A) (A) (A) (A) (A) (A) (A) (A) (A) (A) (A)
                 (A) (A) (A) (A) (A) (A) (A) (A) (A) (A) (A)
 Generating guess from densities on rwf.
 Convergence on wavefunction:    0.000001000000000
 Iteration     1 Dimension     3 NMult     0 NNew      3
 CISAX will form     3 AO SS matrices at one time.
 Iteration     2 Dimension     6 NMult     3 NNew      3
 Iteration     3 Dimension     9 NMult     6 NNew      3
 Iteration     4 Dimension    12 NMult     9 NNew      3
 Iteration     5 Dimension    15 NMult    12 NNew      3
 Iteration     6 Dimension    18 NMult    15 NNew      3
 Iteration     7 Dimension    21 NMult    18 NNew      3
 Iteration     8 Dimension    23 NMult    21 NNew      2
 Iteration     9 Dimension    25 NMult    23 NNew      2
 Iteration    10 Dimension    27 NMult    25 NNew      2
 Iteration    11 Dimension    29 NMult    27 NNew      2
 Iteration    12 Dimension    31 NMult    29 NNew      2
 Iteration    13 Dimension    32 NMult    31 NNew      1
 Iteration    14 Dimension    33 NMult    32 NNew      1
 Iteration    15 Dimension    34 NMult    33 NNew      1
 Iteration    16 Dimension    35 NMult    34 NNew      1
 ***********************************************************************
 Excited states from <AA,BB:AA,BB> singles matrix:
 ***********************************************************************
 
 Ground to excited state transition densities written to RWF  633
 Ground to excited state transition electric dipole moments (Au):
       state          X           Y           Z        Dip. S.      Osc.
         1         0.0000      0.0000      0.0087      0.0001      0.0000
         2         2.7722      0.3958      0.0000      7.8418      0.8384
         3         0.0001      0.0000      0.0363      0.0013      0.0002
 Ground to excited state transition velocity dipole moments (Au):
       state          X           Y           Z        Dip. S.      Osc.
         1         0.0000      0.0000     -0.0352      0.0012      0.0136
         2        -0.1817     -0.0178     -0.0000      0.0333      0.1386
         3        -0.0000     -0.0000      0.0265      0.0007      0.0027
 Ground to excited state transition magnetic dipole moments (Au):
       state          X           Y           Z
         1        -0.3853      0.6438      0.0000
         2        -0.0000      0.0001     -0.8488
         3         0.5416     -0.5366     -0.0000
 Ground to excited state transition velocity quadrupole moments (Au):
       state          XX          YY          ZZ          XY          XZ          YZ
         1        -0.0000     -0.0000      0.0000      0.0000      0.0157      0.0193
         2        -0.2160     -0.2833      0.0762     -0.1671     -0.0000     -0.0000
         3        -0.0000     -0.0000      0.0000      0.0000      0.0185      0.0479
 <0|del|b> * <b|rxdel|0> + <0|del|b> * <b|delr+rdel|0>
 Rotatory Strengths (R) in cgs (10**-40 erg-esu-cm/Gauss)
       state          XX          YY          ZZ    R(velocity)    E-M Angle
         1        -0.0008     -0.0046      0.0032     -0.0007       90.00
[...]
 Low frequencies ---   -3.0226   -0.0041   -0.0038   -0.0035    3.1622    7.2905
 Low frequencies ---   58.2728  114.3249  188.4711
 Diagonal vibrational polarizability:
       49.5120212       8.7389066      10.6364496
 Harmonic frequencies (cm**-1), IR intensities (KM/Mole), Raman scattering
 activities (A**4/AMU), depolarization ratios for plane and unpolarized
 incident light, reduced masses (AMU), force constants (mDyne/A),
 and normal coordinates:
                      1                      2                      3
                      A                      A                      A
 Frequencies --     58.2723               114.3247               188.4711
 Red. masses --     17.5809                19.4831                18.0141
 Frc consts  --      0.0352                 0.1500                 0.3770
 IR Inten    --      1.0062                 0.4476                 0.6751
  Atom  AN      X      Y      Z        X      Y      Z        X      Y      Z
     1   7    -0.00   0.00   0.03     0.18   0.21   0.00     0.37  -0.24  -0.00
     2   8     0.00  -0.00   0.37     0.69   0.24   0.00    -0.13  -0.28   0.00
     3   8    -0.00   0.00  -0.50    -0.19  -0.22   0.00     0.70   0.15   0.00
     4   8    -0.00   0.00   0.73     0.18   0.27  -0.00    -0.13   0.24   0.00
     5  17     0.00  -0.00  -0.29    -0.38  -0.22   0.00    -0.35   0.05  -0.00
                      4                      5                      6
                      A                      A                      A
 Frequencies --    302.9017               349.0296               808.5110
 Red. masses --     14.4417                15.8855                15.0348
 Frc consts  --      0.7807                 1.1402                 5.7906
 IR Inten    --      9.0753                33.5010               746.8872
  Atom  AN      X      Y      Z        X      Y      Z        X      Y      Z
     1   7     0.00  -0.00   0.88    -0.20  -0.18   0.00     0.63   0.32  -0.00
     2   8     0.00   0.00  -0.31    -0.34  -0.19  -0.00    -0.45   0.21   0.00
     3   8     0.00   0.00  -0.34    -0.14  -0.13  -0.00    -0.09  -0.48  -0.00
     4   8    -0.00  -0.00  -0.11     0.65   0.57  -0.00     0.04  -0.09   0.00
     5  17    -0.00   0.00  -0.01     0.00  -0.04   0.00    -0.02   0.04  -0.00
                      7                      8                      9
                      A                      A                      A
 Frequencies --   1010.1369              1483.0842              1852.2387
 Red. masses --     19.0820                15.5045                14.6183
 Frc consts  --     11.4719                20.0928                29.5489
 IR Inten    --     17.1780               963.6977               819.1508
  Atom  AN      X      Y      Z        X      Y      Z        X      Y      Z
     1   7     0.07   0.03   0.00    -0.42  -0.27   0.00    -0.41   0.73   0.00
     2   8    -0.06   0.07   0.00    -0.05   0.63   0.00     0.03  -0.36  -0.00
     3   8     0.03  -0.09  -0.00     0.44  -0.39  -0.00     0.32  -0.27  -0.00
     4   8    -0.62   0.66  -0.00     0.03  -0.04   0.00    -0.00  -0.00  -0.00
     5  17     0.27  -0.30   0.00    -0.02   0.02  -0.00     0.00  -0.00   0.00

 -------------------
 - Thermochemistry -
 -------------------
 Temperature   298.150 Kelvin.  Pressure   1.00000 Atm.
 Atom     1 has atomic number  7 and mass  14.00307
 Atom     2 has atomic number  8 and mass  15.99491
 Atom     3 has atomic number  8 and mass  15.99491
 Atom     4 has atomic number  8 and mass  15.99491
 Atom     5 has atomic number 17 and mass  34.96885
 Molecular mass:    96.95667 amu.
 Principal axes and moments of inertia in atomic units:
                           1         2         3
     Eigenvalues --   164.56386 824.59249 989.15635
           X            1.00000   0.00162  -0.00002
           Y           -0.00162   1.00000  -0.00003
           Z            0.00002   0.00003   1.00000
 This molecule is an asymmetric top.
 Rotational symmetry number  1.
 Rotational temperatures (Kelvin)      0.52632     0.10504     0.08756
 Rotational constants (GHZ):          10.96681     2.18865     1.82453
 Zero-point vibrational energy      36886.7 (Joules/Mol)
                                    8.81613 (Kcal/Mol)
 Warning -- explicit consideration of   5 degrees of freedom as
           vibrations may cause significant error
 Vibrational temperatures:     83.84   164.49   271.17   435.81   502.18
          (Kelvin)           1163.27  1453.36  2133.83  2664.96
 
 Zero-point correction=                           0.014049 (Hartree/Particle)
 Thermal correction to Energy=                    0.019883
 Thermal correction to Enthalpy=                  0.020827
 Thermal correction to Gibbs Free Energy=        -0.016638
 Sum of electronic and zero-point Energies=           -738.229173
 Sum of electronic and thermal Energies=              -738.223339
 Sum of electronic and thermal Enthalpies=            -738.222395
 Sum of electronic and thermal Free Energies=         -738.259860
 
                     E (Thermal)             CV                S
                      KCal/Mol        Cal/Mol-Kelvin    Cal/Mol-Kelvin
 Total                   12.477             16.078             78.853
 Electronic               0.000              0.000              0.000
 Translational            0.889              2.981             39.626
 Rotational               0.889              2.981             26.398
 Vibrational             10.699             10.116             12.829
 Vibration     1          0.596              1.974              4.515
 Vibration     2          0.607              1.938              3.194
 Vibration     3          0.633              1.856              2.243
 Vibration     4          0.694              1.668              1.401
 Vibration     5          0.726              1.577              1.171
                       Q            Log10(Q)             Ln(Q)
 Total Bot       0.449937D+08          7.653152         17.622033
 Total V=0       0.130442D+15         14.115418         32.501950
 Vib (Bot)       0.914253D-05         -5.038934        -11.602574
 Vib (Bot)    1  0.354445D+01          0.549549          1.265383
 Vib (Bot)    2  0.178981D+01          0.252807          0.582111
 Vib (Bot)    3  0.106250D+01          0.026330          0.060627
 Vib (Bot)    4  0.626820D+00         -0.202857         -0.467096
 Vib (Bot)    5  0.528939D+00         -0.276594         -0.636882
 Vib (V=0)       0.265053D+02          1.423332          3.277344
 Vib (V=0)    1  0.407954D+01          0.610612          1.405985
 Vib (V=0)    2  0.235834D+01          0.372606          0.857958
 Vib (V=0)    3  0.167427D+01          0.223826          0.515378
 Vib (V=0)    4  0.130181D+01          0.114548          0.263757
 Vib (V=0)    5  0.122786D+01          0.089148          0.205271
 Electronic      0.100000D+01          0.000000          0.000000
 Translational   0.375250D+08          7.574320         17.440517
 Rotational      0.131149D+06          5.117765         11.784089
 ***** Axes restored to original set *****
 -------------------------------------------------------------------
 Center     Atomic                   Forces (Hartrees/Bohr)
 Number     Number              X              Y              Z
 -------------------------------------------------------------------
      1        7           0.000171284    0.000080734   -0.000000857
      2        8          -0.000134952   -0.000110824    0.000000171
      3        8          -0.000068685   -0.000037177    0.000000426
      4        8           0.000078089    0.000036856   -0.000000074
      5       17          -0.000045737    0.000030411    0.000000334
 -------------------------------------------------------------------
 Cartesian Forces:  Max     0.000171284 RMS     0.000074352
 -------------------------------------------------------------------
 Center     Atomic                Nonadiabatic Coup. (Bohr^-1)
 Number     Number              X              Y              Z
 -------------------------------------------------------------------
      1        7           0.000007019    0.000035813    0.379425848
      2        8           0.000005877    0.000005649   -0.056184080
      3        8          -0.000029307   -0.000002174   -0.092824209
      4        8          -0.000009401   -0.000037132   -0.200457291
      5       17           0.000021992    0.000000342    0.005227578
 -------------------------------------------------------------------
 Cartesian Nonad. Coup.:  Max     0.379425848 RMS     0.114294186
 FormGI is forming the generalized inverse of G from B-inverse, IUseBI=4.

 GradGradGradGradGradGradGradGradGradGradGradGradGradGradGradGradGradGrad
 Berny optimization.
 Internal  Forces:  Max     0.000156529 RMS     0.000078210
 Search for a local minimum.
 Step number   1 out of a maximum of    2
 All quantities printed in internal units (Hartrees-Bohrs-Radians)
 Second derivative matrix not updated -- analytic derivatives used.
 The second derivative matrix:
                          R1        R2        R3        R4        A1
           R1           0.87299
           R2           0.18838   0.91196
           R3           0.02240   0.01901   0.05859
           R4           0.02337   0.01738   0.00190   0.41965
           A1           0.08409   0.08208  -0.02297  -0.01396   0.18490
           A2          -0.03627  -0.03772   0.01755  -0.00183  -0.09955
           A3          -0.04782  -0.04436   0.00543   0.01579  -0.08535
           A4           0.01521   0.01456   0.01974  -0.00744  -0.01867
           D1           0.00000  -0.00000  -0.00000   0.00000   0.00000
           D2          -0.00000  -0.00000   0.00000  -0.00000   0.00000
           D3          -0.00000  -0.00000   0.00000  -0.00000  -0.00000
                          A2        A3        A4        D1        D2
           A2           0.07518
           A3           0.02437   0.06098
           A4           0.00594   0.01273   0.08996
           D1          -0.00000   0.00000  -0.00000   0.00926
           D2          -0.00000  -0.00000   0.00000  -0.00292   0.00234
           D3           0.00000   0.00000   0.00000   0.00439   0.00003
                          D3
           D3           0.00350
 ITU=  0
     Eigenvalues ---    0.00280   0.01229   0.03576   0.05288   0.09066
     Eigenvalues ---    0.26109   0.42188   0.70338   1.10855
 Angle between quadratic step and forces=  44.04 degrees.
 Linear search not attempted -- first point.
 Iteration  1 RMS(Cart)=  0.00102346 RMS(Int)=  0.00000057
 Iteration  2 RMS(Cart)=  0.00000054 RMS(Int)=  0.00000000
 Variable       Old X    -DE/DX   Delta X   Delta X   Delta X     New X
                                 (Linear)    (Quad)   (Total)
    R1        2.19264  -0.00010   0.00000  -0.00017  -0.00017   2.19247
    R2        2.18348  -0.00003   0.00000  -0.00007  -0.00007   2.18342
    R3        4.13653  -0.00006   0.00000  -0.00051  -0.00051   4.13602
    R4        2.87349   0.00005   0.00000   0.00012   0.00012   2.87361
    A1        2.32856   0.00016   0.00000   0.00057   0.00057   2.32913
    A2        1.97443  -0.00015   0.00000  -0.00172  -0.00172   1.97271
    A3        1.98019  -0.00000   0.00000   0.00115   0.00115   1.98134
    A4        1.85282   0.00004   0.00000   0.00063   0.00063   1.85345
    D1       -3.14157  -0.00000   0.00000  -0.00002  -0.00002   3.14159
    D2        0.00016  -0.00000   0.00000  -0.00009  -0.00009   0.00007
    D3       -3.14142  -0.00000   0.00000  -0.00011  -0.00011  -3.14153
         Item               Value     Threshold  Converged?
 Maximum Force            0.000157     0.000450     YES
 RMS     Force            0.000078     0.000300     YES
 Maximum Displacement     0.002148     0.001800     NO 
 RMS     Displacement     0.001024     0.001200     YES
 Predicted change in Energy=-2.153990D-07
                           ----------------------------
                           ! Non-Optimized Parameters !
                           ! (Angstroms and Degrees)  !
 --------------------------                            --------------------------
 ! Name  Definition              Value          Derivative Info.                !
 --------------------------------------------------------------------------------
 ! R1    R(1,2)                  1.1602         -DE/DX =   -0.0001              !
 ! R2    R(1,3)                  1.1554         -DE/DX =    0.0                 !
 ! R3    R(1,4)                  2.1887         -DE/DX =   -0.0001              !
 ! R4    R(4,5)                  1.5206         -DE/DX =    0.0001              !
 ! A1    A(2,1,3)              133.4491         -DE/DX =    0.0002              !
 ! A2    A(2,1,4)              113.0282         -DE/DX =   -0.0002              !
 ! A3    A(3,1,4)              113.5227         -DE/DX =    0.0                 !
 ! A4    A(1,4,5)              106.195          -DE/DX =    0.0                 !
 ! D1    D(2,1,3,4)            179.9999         -DE/DX =    0.0                 !
 ! D2    D(2,1,4,5)              0.0039         -DE/DX =    0.0                 !
 ! D3    D(3,1,4,5)           -179.9962         -DE/DX =    0.0                 !
 --------------------------------------------------------------------------------
 GradGradGradGradGradGradGradGradGradGradGradGradGradGradGradGradGradGrad

 -------------------------------------------------------------------
 Center     Atomic                Nonadiabatic Coup. (Bohr^-1)
 Number     Number              X              Y              Z
 -------------------------------------------------------------------
      1        7           0.000007019    0.000035813    0.379425848
      2        8           0.000005877    0.000005649   -0.056184080
      3        8          -0.000029307   -0.000002174   -0.092824209
      4        8          -0.000009401   -0.000037132   -0.200457291
      5       17           0.000021992    0.000000342    0.005227578
 -------------------------------------------------------------------
 Cartesian Nonad. Coup.:  Max     0.379425848 RMS     0.114294186

 ----------------------------------------------------------------------

 Electric dipole moment (input orientation):
 (Debye = 10**-18 statcoulomb cm , SI units = C m)
                  (au)            (Debye)         (10**-30 SI)
   Tot        0.121917D+01      0.309883D+01      0.103366D+02
   x         -0.120962D+01     -0.307455D+01     -0.102556D+02
   y          0.152323D+00      0.387166D+00      0.129145D+01
   z         -0.485456D-04     -0.123391D-03     -0.411587D-03

 Dipole polarizability, Alpha (input orientation).
 (esu units = cm**3 , SI units = C**2 m**2 J**-1)
 Alpha(0;0):
               (au)            (10**-24 esu)      (10**-40 SI)
   iso        0.542254D+02      0.803538D+01      0.894057D+01
   aniso      0.651577D+02      0.965538D+01      0.107431D+02
   xx         0.962122D+02      0.142572D+02      0.158632D+02
   yx         0.422278D+01      0.625751D+00      0.696242D+00
   yy         0.419028D+02      0.620935D+01      0.690883D+01
   zx         0.112796D-02      0.167147D-03      0.185976D-03
   zy         0.491307D-03      0.728042D-04      0.810056D-04
   zz         0.245614D+02      0.363962D+01      0.404962D+01

 ----------------------------------------------------------------------

 Dipole orientation:
     7          0.04901981          0.38961123         -2.33592045
     8          0.31810245          2.52529608         -1.91866022
     8         -0.09758576         -0.77263725         -4.17854795
     8         -0.24053657         -1.91116743          1.08949330
    17         -0.01116019         -0.08835698          3.29894684

 Electric dipole moment (dipole orientation):
 (Debye = 10**-18 statcoulomb cm , SI units = C m)
                  (au)            (Debye)         (10**-30 SI)
   Tot        0.121917D+01      0.309883D+01      0.103366D+02
   x          0.000000D+00      0.000000D+00      0.000000D+00
   y          0.000000D+00      0.000000D+00      0.000000D+00
   z          0.121917D+01      0.309883D+01      0.103366D+02

 Dipole polarizability, Alpha (dipole orientation).
 (esu units = cm**3 , SI units = C**2 m**2 J**-1)
 Alpha(0;0):
               (au)            (10**-24 esu)      (10**-40 SI)
   iso        0.542254D+02      0.803538D+01      0.894057D+01
   aniso      0.651577D+02      0.965538D+01      0.107431D+02
   xx         0.248617D+02      0.368412D+01      0.409914D+01
   yx         0.238470D+01      0.353376D+00      0.393184D+00
   yy         0.434971D+02      0.644561D+01      0.717171D+01
   zx        -0.135053D+01     -0.200128D+00     -0.222673D+00
   zy        -0.107386D+02     -0.159129D+01     -0.177055D+01
   zz         0.943175D+02      0.139764D+02      0.155509D+02

 ----------------------------------------------------------------------
 1\1\GINC-GRA597\Freq\RCIS-FC\6-311++G(3df,3pd)\Cl1N1O3\ALREBEI\24-Feb-
 2020\0\\#N Geom=AllCheck Guess=TCheck SCRF=Check GenChk RCIS(FC,Read)/
 6-311++G(3df,3pd) Freq\\Title Card Required\\0,1\N,1.2523923903,0.0517
 310664,0.000026959\O,1.1756351952,1.20948347,0.0000938878\O,2.14237749
 55,-0.6851460641,-0.0000645188\O,-0.6993713148,-0.9393058495,0.0000449
 019\Cl,-1.7379367662,0.1713513772,-0.00008723\\Version=ES64L-G16RevA.0
 3\State=1-A\HF=-738.3038927\RMSD=8.523e-11\RMSF=7.435e-05\ZeroPoint=0.
 0140494\Thermal=0.0198829\Dipole=-1.2096201,0.1523227,-0.0000485\Dipol
 eDeriv=4.2022225,-0.2006158,-0.0000458,0.7419818,2.5918,0.0002005,-0.0
 001613,0.00015,0.2627982,-1.1169514,-0.1532807,-0.0000049,-0.9432366,-
 1.7028317,-0.0001338,0.0000163,-0.0000775,-0.1891418,-2.5217804,0.5375
 152,0.000052,0.4984011,-0.925592,-0.0000649,0.0001511,-0.0000738,-0.19
 04539,-0.10538,-0.2183043,0.0000229,-0.838092,-0.1834959,-0.0000262,0.
 000081,-0.0000035,-0.1308077,-0.4581107,0.0346855,-0.0000241,0.5409457
 ,0.2201196,0.0000245,-0.0000872,0.0000048,0.2476052\Polar=96.2121757,4
 .2227799,41.9027614,0.001128,0.0004913,24.5613751\PG=C01 [X(Cl1N1O3)]\
 NImag=0\\0.61110815,-0.32581297,1.02941366,-0.00004840,0.00006645,0.03
 678215,-0.09647966,0.00841437,0.00000357,0.10621404,0.02005015,-0.6923
 8216,-0.00003425,-0.10579432,0.86233589,0.00000684,-0.00003552,-0.0146
 2228,-0.00001014,0.00004938,0.00610876,-0.50018250,0.31450720,0.000044
 11,0.00334727,0.10703333,0.00000470,0.51967324,0.30643373,-0.32382674,
 -0.00003357,0.10907358,-0.15980620,-0.00001301,-0.41585781,0.47967851,
 0.00004050,-0.00003237,-0.01597934,0.00000644,-0.00001398,0.00600310,-
 0.00004841,0.00004608,0.00738203,-0.03092650,-0.02132343,0.00000143,-0
 .00777739,-0.00106595,-0.00000103,-0.00257580,0.00040189,0.00000059,0.
 23118031,0.01573943,-0.00240602,0.00000169,-0.01217441,-0.02366295,-0.
 00000104,-0.01696624,0.00481186,0.00000076,-0.18641198,0.25465409,-0.0
 0000234,0.00000043,-0.00526774,0.00000074,0.00000060,0.00260285,0.0000
 0233,-0.00000039,0.00162136,0.00002343,-0.00002762,0.00176753,0.016480
 51,0.02421483,-0.00000071,-0.00530426,-0.02022320,-0.00000037,-0.02026
 221,-0.00005140,0.00000088,-0.18990062,0.19981320,-0.00002416,0.198986
 57,-0.01641034,-0.01079875,-0.00000032,0.00048077,0.01351542,0.0000001
 8,0.01128352,-0.00085743,-0.00000050,0.20839947,-0.23339698,0.00002698
 ,-0.20375343,0.23153774,0.00000340,0.00000101,-0.00091278,-0.00000061,
 -0.00000175,-0.00009242,-0.00000273,0.00000088,0.00097285,-0.00002442,
 0.00002621,-0.00072399,0.00002435,-0.00002635,0.00075634\\-0.00017128,
 -0.00008073,0.00000086,0.00013495,0.00011082,-0.00000017,0.00006868,0.
 00003718,-0.00000043,-0.00007809,-0.00003686,0.00000007,0.00004574,-0.
 00003041,-0.00000033\\\@


 ONE THORN OF EXPERIENCE IS WORTH A WHOLE WILDERNESS OF
 WARNING....  LOWELL - AMONG MY BOOKS
 Job cpu time:       0 days  0 hours 12 minutes 23.6 seconds.
 Elapsed time:       0 days  0 hours  6 minutes 18.5 seconds.
 File lengths (MBytes):  RWF=    142 Int=      0 D2E=      0 Chk=      8 Scr=      1
 Normal termination of Gaussian 16 at Mon Feb 24 02:32:36 2020.
